/*--------------------------------*- C++ -*----------------------------------*\
| =========                 |                                                 |
| \\      /  F ield         | OpenFOAM: The Open Source CFD Toolbox           |
|  \\    /   O peration     | Version:  dev                                   |
|   \\  /    A nd           | Web:      www.OpenFOAM.org                      |
|    \\/     M anipulation  |                                                 |
\*---------------------------------------------------------------------------*/
FoamFile
{
    version     2.0;
    format      ascii;
    class       volSymmTensorField;
    location    "0";
    object      CR;
}
// * * * * * * * * * * * * * * * * * * * * * * * * * * * * * * * * * * * * * //

dimensions      [0 -1 0 0 0 0 0];

internalField   nonuniform List<symmTensor>
8025
(
(98.997697 0 0 77.711245 0 30.754852)
(0.015246 0 0 1.4392388e+11 0 1125966.6)
(0.012289 0 0 3.9923036e+08 0 4775.9376)
(13.290695 0 0 7.996499 0 10.003683)
(5.215724 0 0 6.291483 0 7.908581)
(1.7686897e+11 0 0 0 0 1.8812311e+11)
(0.029204 0 0 0 0 0.409114)
(0.005865 0 0 79839303 0 0.477199)
(199.17747 0 0 1.828904 0 5.289226)
(4.243258 0 0 1.239037 0 2.416286)
(2.9548455e+08 0 0 0 0 3.6420899e+08)
(62038091 0 0 0 0 0.518006)
(0.019886 0 0 0.006456 0 0.45967)
(0.247275 0 0 0.163028 0 2.719679)
(2.023323 0 0 0.15768 0 0.754109)
(7.467954 0 0 72.36723 0 9.714295)
(1.702286 0 0 722.07649 0 0.520517)
(0.15768 0 0 3.2149694e+08 0 0.625001)
(1.631858 0 0 1.897863 0 2.624698)
(3.124398 0 0 1.386489 0 4.005168)
(6.291484 0 0 5.215724 0 9.650877)
(1.239037 0 0 4.243258 0 0.662734)
(0.15768 0 0 2.023323 0 0.625001)
(1.38649 0 0 3.12433 0 3.195271)
(1.959017 0 0 1.959017 0 0.625)
(2.0280641e+10 0 0 3.1141421e+10 0 0)
(0 0 0 0.359299 0 0)
(0 0 0 1.8088046e+08 0 0)
(173.82879 0 0 2.451733 0 0)
(4.962736 0 0 1.474561 0 0)
(0.388515 0 0 0 0 0)
(0 0 0 0 0 0)
(0 0 0 1.0987294e+08 0 0)
(72.749298 0 0 2.278415 0 0)
(1.685464 0 0 1.523318 0 0)
(1.4776132e+08 0 0 0 0 0)
(85155018 0 0 0 0 0)
(0 0 0 0 0 0)
(0.269888 0 0 0.009141 0 0)
(0.316088 0 0 0.013828 0 0)
(2.084938 0 0 110.34957 0 0)
(2.126692 0 0 72.749298 0 0)
(0.009375 0 0 0.437856 0 0)
(2.084938 0 0 2.406363 0 0)
(1.570367 0 0 1.523318 0 0)
(1.481428 0 0 5.227806 0 0)
(1.542838 0 0 1.716379 0 0)
(0 0 0 0.315753 0 0)
(1.550039 0 0 1.585496 0 0)
(0.380302 0 0 0.391444 0 0)
(471.02841 0 0 3.0848768e+10 0 0)
(0 0 0 0.082625 0 0)
(0 0 0 1.3751776e+08 0 0)
(1.6652185e+11 0 0 2.990543 0 0)
(5.230055 0 0 1.625423 0 0)
(0.036228 0 0 0 0 0)
(0 0 0 0 0 0)
(0 0 0 1.1913145e+08 0 0)
(72.749298 0 0 2.278415 0 0)
(1.685464 0 0 1.523318 0 0)
(1.0752416e+08 0 0 0 0 0)
(92389057 0 0 0 0 0)
(0 0 0 0 0 0)
(0.2925 0 0 0 0 0)
(0.219375 0 0 0 0 0)
(2.084938 0 0 110.34957 0 0)
(2.126692 0 0 72.749298 0 0)
(0 0 0 0.304219 0 0)
(2.084938 0 0 2.406363 0 0)
(1.42361 0 0 1.523318 0 0)
(1.629441 0 0 6.314099 0 0)
(1.629443 0 0 1.844575 0 0)
(0 0 0 0.218733 0 0)
(1.62944 0 0 1.469403 0 0)
(0.291039 0 0 0.313799 0 0)
(118.49258 0 0 3.0795565e+10 0 0)
(0 0 0 0.082166 0 0)
(0 0 0 1.3969113e+08 0 0)
(1.5329102e+11 0 0 2.987638 0 0)
(4.862325 0 0 1.624503 0 0)
(0.055379 0 0 0 0 0)
(0 0 0 0 0 0)
(0 0 0 1.2127684e+08 0 0)
(72.749298 0 0 2.278415 0 0)
(1.685464 0 0 1.523318 0 0)
(1.09638e+08 0 0 0 0 0)
(94248232 0 0 0 0 0)
(0 0 0 0 0 0)
(0.292885 0 0 0.002285 0 0)
(0.218565 0 0 0.003457 0 0)
(2.084938 0 0 110.34957 0 0)
(2.126692 0 0 72.749298 0 0)
(0.003515 0 0 0.304311 0 0)
(2.084938 0 0 2.406363 0 0)
(1.423669 0 0 1.523318 0 0)
(1.629437 0 0 6.308909 0 0)
(1.626325 0 0 1.842935 0 0)
(0 0 0 0.217413 0 0)
(1.625458 0 0 1.46823 0 0)
(0.278561 0 0 0.315207 0 0)
(71.382313 0 0 1.5779708e+09 0 27451.575)
(0 0 0 5.3462493e+08 0 16.437589)
(0 0 0 35001964 0 0.084478)
(1.9802443e+08 0 0 3.162228 0 5.063296)
(4.603718 0 0 1.753652 0 3.760613)
(4.8223581e+08 0 0 64162662 0 0.039066)
(0 0 0 0 0 0.019535)
(58182233 0 0 2002632.9 0 0.084479)
(69.106266 0 0 2.366893 0 0.67998)
(1.616036 0 0 1.548879 0 0.744341)
(27574092 0 0 35912621 0 0.202404)
(6386328.1 0 0 30541623 0 0.128427)
(89.208386 0 0 0 0 0.134292)
(0.343482 0 0 0.039735 0 0.229873)
(0.218852 0 0 0.03844 0 0.301731)
(2.990385 0 0 83.486372 0 4.604409)
(2.205021 0 0 57.455284 0 0.684984)
(0.114997 0 0 0.204752 0 0.625)
(2.095157 0 0 2.4016 0 1.299905)
(1.562223 0 0 1.569397 0 1.589141)
(2.626149 0 0 7.370784 0 8.004732)
(1.704385 0 0 1.828205 0 0.877382)
(0.038429 0 0 0.31966 0 0.625)
(1.75755 0 0 1.755213 0 1.889045)
(0.253217 0 0 0.389501 0 0.129097)
(4.889 0 0 8.669946 0 6.78698)
(1.528241 0 0 7.637388 0 7.589298)
(0.698727 0 0 6.169957 0 6.842083)
(1.528241 0 0 7.600457 0 6.805295)
(5.215724 0 0 6.291483 0 7.740731)
(4.408605 0 0 1.378064 0 2.436258)
(1.453338 0 0 1.724053 0 1.446184)
(0.648989 0 0 0.872544 0 1.809335)
(1.453338 0 0 1.713476 0 1.446184)
(4.243258 0 0 1.239037 0 2.416286)
(2.023323 0 0 0.151194 0 1.011662)
(0.2379 0 0 0.15768 0 0.675709)
(0.11895 0 0 0.153792 0 0.661812)
(0.2379 0 0 0.153792 0 0.705006)
(2.023323 0 0 0.15768 0 0.691109)
(3.723677 0 0 1.529985 0 3.806044)
(1.400876 0 0 1.84568 0 3.094462)
(0.639974 0 0 1.017868 0 3.468973)
(1.407724 0 0 1.84568 0 3.094462)
(3.405995 0 0 1.386489 0 4.005168)
(4.469854 0 0 5.077943 0 1.818713)
(0.88855 0 0 4.484755 0 1.689682)
(1.248614 0 0 4.971008 0 1.31287)
(1.453338 0 0 5.062273 0 1.279397)
(3.163865 0 0 3.585681 0 2.556132)
(4.916517 0 0 4.64618 0 0)
(2.035467 0 0 2.155143 0 0)
(0.788326 0 0 0.963311 0 0)
(1.956621 0 0 2.165548 0 0)
(4.962736 0 0 1.474561 0 0)
(1.685464 0 0 1.523317 0 0)
(2.037862 0 0 2.126692 0 0)
(0.906534 0 0 0.963535 0 0)
(2.037862 0 0 2.111932 0 0)
(1.685464 0 0 1.523318 0 0)
(0.316087 0 0 0.014063 0 0)
(0.2652 0 0 0.014063 0 0)
(0.1326 0 0 0.014063 0 0)
(0.2652 0 0 0.014063 0 0)
(0.316088 0 0 0.014063 0 0)
(1.685464 0 0 1.523318 0 0)
(2.027145 0 0 2.126692 0 0)
(0.951319 0 0 0.963535 0 0)
(2.038542 0 0 2.111932 0 0)
(1.653762 0 0 1.523318 0 0)
(2.111105 0 0 3.776616 0 0)
(1.271883 0 0 1.212991 0 0)
(1.762103 0 0 1.888584 0 0)
(2.050099 0 0 2.158954 0 0)
(0.94722 0 0 0.947077 0 0)
(4.239845 0 0 4.437816 0 0)
(1.541211 0 0 2.471861 0 0)
(0.363214 0 0 0.959326 0 0)
(1.323699 0 0 2.26445 0 0)
(5.230055 0 0 1.625423 0 0)
(1.685464 0 0 1.523317 0 0)
(2.033529 0 0 2.126692 0 0)
(0.895798 0 0 0.963535 0 0)
(2.033529 0 0 2.126692 0 0)
(1.685464 0 0 1.523318 0 0)
(0.219375 0 0 0 0 0)
(0.2925 0 0 0 0 0)
(0.14625 0 0 0 0 0)
(0.2925 0 0 0 0 0)
(0.219375 0 0 0 0 0)
(1.591958 0 0 1.523318 0 0)
(2.063483 0 0 2.126692 0 0)
(0.963535 0 0 0.963535 0 0)
(2.076282 0 0 2.126692 0 0)
(1.505433 0 0 1.523318 0 0)
(2.413789 0 0 3.765394 0 0)
(1.292621 0 0 1.244446 0 0)
(1.817048 0 0 2.027231 0 0)
(2.159578 0 0 2.294781 0 0)
(0.963531 0 0 0.960244 0 0)
(3.619993 0 0 4.473208 0 0)
(1.321471 0 0 2.470047 0 0)
(0.202774 0 0 0.958257 0 0)
(1.039348 0 0 2.274847 0 0)
(4.862326 0 0 1.624503 0 0)
(1.685464 0 0 1.523317 0 0)
(2.006247 0 0 2.126692 0 0)
(0.884619 0 0 0.963535 0 0)
(2.006247 0 0 2.126692 0 0)
(1.685464 0 0 1.523318 0 0)
(0.276573 0 0 0.003516 0 0)
(0.29142 0 0 0.003516 0 0)
(0.14571 0 0 0.003516 0 0)
(0.29142 0 0 0.003516 0 0)
(0.218565 0 0 0.003516 0 0)
(1.592092 0 0 1.523318 0 0)
(2.063653 0 0 2.126692 0 0)
(0.963535 0 0 0.963535 0 0)
(2.076453 0 0 2.126692 0 0)
(1.505932 0 0 1.523318 0 0)
(2.392865 0 0 3.83357 0 0)
(1.28389 0 0 1.243235 0 0)
(1.805104 0 0 2.047621 0 0)
(2.144832 0 0 2.341169 0 0)
(0.963529 0 0 0.959531 0 0)
(3.835371 0 0 5.672885 0 2.866177)
(0.962832 0 0 2.627281 0 3.617261)
(0.094731 0 0 1.064908 0 3.282947)
(0.590963 0 0 2.621253 0 3.19344)
(4.603718 0 0 1.753652 0 3.667956)
(2.526575 0 0 1.559779 0 0.660861)
(2.045516 0 0 2.059039 0 0.680734)
(0.929212 0 0 1.009492 0 0.876572)
(2.045516 0 0 2.039836 0 0.680734)
(1.616036 0 0 1.548879 0 0.744341)
(0.625 0 0 0.03844 0 0.311247)
(0.30399 0 0 0.03844 0 0.313321)
(0.206839 0 0 0.03844 0 0.330821)
(0.340552 0 0 0.03844 0 0.332896)
(0.218852 0 0 0.03844 0 0.311247)
(2.474511 0 0 1.585493 0 1.38434)
(2.063541 0 0 2.089565 0 1.513293)
(0.924535 0 0 1.033137 0 1.767072)
(2.063541 0 0 2.069727 0 1.513293)
(1.577225 0 0 1.569397 0 1.589141)
(3.487246 0 0 5.220858 0 0.7636)
(1.318814 0 0 1.530306 0 0.877896)
(1.895755 0 0 2.442707 0 0.823118)
(2.205157 0 0 2.92678 0 0.796814)
(0.956052 0 0 1.20717 0 0.904238)
(4.889 0 0 8.669946 0 6.78698)
(1.528241 0 0 7.637388 0 7.589298)
(0.698727 0 0 6.169957 0 6.353552)
(1.494295 0 0 7.637388 0 6.447021)
(8.155464 0 0 5.990168 0 6.269214)
(4.408605 0 0 1.378064 0 2.436258)
(1.453338 0 0 1.724053 0 1.446184)
(0.648989 0 0 0.869587 0 1.809335)
(0.19496 0 0 0.189417 0 0.692476)
(7.637389 0 0 1.408313 0 3.094463)
(2.023323 0 0 0.151194 0 1.011662)
(0.245822 0 0 0.15768 0 0.593317)
(0.065053 0 0 0.15768 0 0.653414)
(1.014633 0 0 0.653472 0 3.441907)
(6.169958 0 0 0.639974 0 3.468974)
(3.423008 0 0 1.529984 0 3.951112)
(1.55299 0 0 1.697801 0 2.87133)
(0.090292 0 0 0.2514 0 0.311347)
(1.845682 0 0 1.407724 0 2.979523)
(7.600644 0 0 1.408313 0 3.094463)
(3.102523 0 0 3.92408 0 0.70419)
(1.239037 0 0 4.064123 0 0.662734)
(0.15768 0 0 2.023323 0 0.625)
(1.386491 0 0 3.701481 0 3.195273)
(6.128725 0 0 3.623471 0 3.125077)
(4.916517 0 0 4.64618 0 0)
(2.035467 0 0 2.155143 0 0)
(0.788326 0 0 0.963311 0 0)
(1.875583 0 0 2.165548 0 0)
(7.102158 0 0 2.006455 0 0)
(1.685463 0 0 1.523317 0 0)
(2.037862 0 0 2.126692 0 0)
(0.906534 0 0 0.958478 0 0)
(0.18731 0 0 0.205205 0 0)
(2.126692 0 0 2.041508 0 0)
(0.316087 0 0 0.014063 0 0)
(0.269161 0 0 0.014063 0 0)
(0.069089 0 0 0.07612 0 0)
(0.958478 0 0 0.910871 0 0)
(0.963535 0 0 0.952653 0 0)
(1.653761 0 0 1.523317 0 0)
(1.999844 0 0 2.017477 0 0)
(0.007476 0 0 0.27195 0 0)
(2.111932 0 0 2.038542 0 0)
(2.126692 0 0 2.126692 0 0)
(0.95456 0 0 2.646754 0 0)
(1.542838 0 0 1.716378 0 0)
(0 0 0 0.315753 0 0)
(1.55004 0 0 1.727867 0 0)
(1.473256 0 0 1.606616 0 0)
(4.239845 0 0 4.437816 0 0)
(1.541211 0 0 2.47186 0 0)
(0.363214 0 0 0.959326 0 0)
(1.295918 0 0 2.330678 0 0)
(7.403627 0 0 2.122804 0 0)
(1.685463 0 0 1.523317 0 0)
(2.033529 0 0 2.126692 0 0)
(0.895798 0 0 0.963535 0 0)
(0.172392 0 0 0.219375 0 0)
(2.126692 0 0 2.076283 0 0)
(0.219375 0 0 0 0 0)
(0.2925 0 0 0 0 0)
(0.073125 0 0 0.073125 0 0)
(0.963535 0 0 0.913954 0 0)
(0.963535 0 0 0.963535 0 0)
(1.505432 0 0 1.523317 0 0)
(2.020185 0 0 2.020185 0 0)
(0 0 0 0.2925 0 0)
(2.126692 0 0 2.076283 0 0)
(2.126692 0 0 2.126692 0 0)
(0.963526 0 0 2.310435 0 0)
(1.629442 0 0 1.741182 0 0)
(0 0 0 0.218733 0 0)
(1.62944 0 0 1.648591 0 0)
(1.629447 0 0 1.854059 0 0)
(3.619993 0 0 4.473207 0 0)
(1.321471 0 0 2.470047 0 0)
(0.202774 0 0 0.958258 0 0)
(1.047408 0 0 2.340222 0 0)
(7.840676 0 0 2.211841 0 0)
(1.685463 0 0 1.523317 0 0)
(2.006247 0 0 2.126692 0 0)
(0.884619 0 0 0.963535 0 0)
(0.145515 0 0 0.220141 0 0)
(2.126692 0 0 2.077964 0 0)
(0.276573 0 0 0.003516 0 0)
(0.29241 0 0 0.003516 0 0)
(0.073552 0 0 0.07531 0 0)
(0.963535 0 0 0.916492 0 0)
(0.963535 0 0 0.963535 0 0)
(1.505932 0 0 1.523317 0 0)
(2.026331 0 0 2.026331 0 0)
(0.001868 0 0 0.293107 0 0)
(2.126692 0 0 2.076454 0 0)
(2.126692 0 0 2.126692 0 0)
(0.963522 0 0 2.334336 0 0)
(1.625789 0 0 1.739192 0 0)
(0 0 0 0.217413 0 0)
(1.626321 0 0 1.64697 0 0)
(1.629444 0 0 1.853022 0 0)
(3.835371 0 0 5.672885 0 2.866177)
(0.962832 0 0 2.627281 0 3.617261)
(0.094731 0 0 1.064909 0 3.028032)
(0.618147 0 0 2.621253 0 3.001855)
(7.758949 0 0 2.200156 0 2.995953)
(2.526575 0 0 1.559779 0 0.660861)
(2.045516 0 0 2.059039 0 0.680734)
(0.929212 0 0 0.965552 0 0.876572)
(0.190333 0 0 0.148475 0 0.346154)
(3.017049 0 0 1.915847 0 1.513294)
(0.625 0 0 0.03844 0 0.307048)
(0.30597 0 0 0.03844 0 0.272133)
(0.159658 0 0 0.052314 0 0.326622)
(1.030941 0 0 0.879503 0 1.759034)
(1.762155 0 0 0.902736 0 1.767073)
(2.474511 0 0 1.585493 0 1.437109)
(2.117936 0 0 1.972244 0 1.410977)
(0.112179 0 0 0.197677 0 0.175122)
(2.197552 0 0 1.914867 0 1.495566)
(3.017049 0 0 2.056398 0 1.513294)
(1.745997 0 0 2.904533 0 0.082342)
(1.703225 0 0 1.828204 0 0.826066)
(0.038428 0 0 0.31966 0 0.625)
(1.759549 0 0 1.82266 0 1.814531)
(2.626163 0 0 1.830583 0 1.889045)
(8.669946 0 0 4.889 0 12.579579)
(1.378064 0 0 4.408605 0 2.495519)
(0.150982 0 0 2.023323 0 2.951834)
(1.529985 0 0 3.723593 0 4.726274)
(5.074562 0 0 4.469854 0 4.333239)
(7.637389 0 0 1.528241 0 9.965904)
(1.724053 0 0 1.454317 0 0.539561)
(0.15768 0 0 0.2379 0 0.625001)
(1.845681 0 0 1.400875 0 2.721142)
(4.484755 0 0 0.889154 0 1.714421)
(6.169958 0 0 0.698727 0 11.96325)
(0.872544 0 0 0.64941 0 0.797674)
(0.153793 0 0 0.11895 0 0.625001)
(1.017868 0 0 0.639974 0 3.468974)
(4.971136 0 0 1.249461 0 1.610485)
(7.600644 0 0 1.528241 0 9.965904)
(1.713477 0 0 1.454317 0 0.531299)
(0.153793 0 0 0.2379 0 0.625001)
(1.845681 0 0 1.407724 0 2.936411)
(5.062389 0 0 1.454318 0 1.446184)
(6.291484 0 0 5.215724 0 9.650877)
(1.239037 0 0 4.243258 0 0.662734)
(0.15768 0 0 2.023323 0 0.625001)
(1.38649 0 0 3.40592 0 3.195271)
(3.585681 0 0 3.163865 0 1.639455)
(4.337541 0 0 5.272254 0 0)
(1.434625 0 0 1.722703 0 0)
(0 0 0 0.315753 0 0)
(1.358199 0 0 1.736844 0 0)
(3.622968 0 0 2.099826 0 0)
(2.126692 0 0 2.126692 0 0)
(2.111227 0 0 2.056517 0 0)
(0 0 0 0.2652 0 0)
(2.111227 0 0 2.027145 0 0)
(1.198212 0 0 1.273485 0 0)
(0.963535 0 0 0.963535 0 0)
(0.963535 0 0 0.914536 0 0)
(0.014063 0 0 0.1326 0 0)
(0.963535 0 0 0.951319 0 0)
(1.864635 0 0 1.768116 0 0)
(2.126692 0 0 2.126692 0 0)
(2.111932 0 0 2.056517 0 0)
(0.014062 0 0 0.2652 0 0)
(2.111932 0 0 2.038542 0 0)
(2.126692 0 0 2.056517 0 0)
(1.481428 0 0 5.227805 0 0)
(1.542838 0 0 1.716379 0 0)
(0 0 0 0.315753 0 0)
(1.550039 0 0 1.670458 0 0)
(0.94722 0 0 0.947077 0 0)
(3.221746 0 0 6.314095 0 0)
(0.886092 0 0 1.844574 0 0)
(0 0 0 0.218732 0 0)
(0.695407 0 0 1.64859 0 0)
(3.097898 0 0 2.336114 0 0)
(2.126692 0 0 2.126692 0 0)
(2.089997 0 0 2.076283 0 0)
(0 0 0 0.2925 0 0)
(2.089997 0 0 2.063484 0 0)
(1.198212 0 0 1.285208 0 0)
(0.963535 0 0 0.963535 0 0)
(0.963535 0 0 0.913954 0 0)
(0 0 0 0.14625 0 0)
(0.963535 0 0 0.963535 0 0)
(1.864635 0 0 1.776109 0 0)
(2.126692 0 0 2.126692 0 0)
(2.126692 0 0 2.076283 0 0)
(0 0 0 0.2925 0 0)
(2.126692 0 0 2.076283 0 0)
(2.126692 0 0 2.076283 0 0)
(1.62944 0 0 6.314099 0 0)
(1.629442 0 0 1.844575 0 0)
(0 0 0 0.218733 0 0)
(1.629439 0 0 1.556297 0 0)
(0.96353 0 0 0.960244 0 0)
(2.869795 0 0 6.308904 0 0)
(0.716165 0 0 1.842933 0 0)
(0 0 0 0.217413 0 0)
(0.46781 0 0 1.646969 0 0)
(3.148185 0 0 2.472213 0 0)
(2.126692 0 0 2.126692 0 0)
(2.072595 0 0 2.076454 0 0)
(0 0 0 0.29142 0 0)
(2.072595 0 0 2.063654 0 0)
(1.198212 0 0 1.294552 0 0)
(0.963535 0 0 0.963535 0 0)
(0.963535 0 0 0.914455 0 0)
(0.003516 0 0 0.14571 0 0)
(0.963535 0 0 0.963535 0 0)
(1.864635 0 0 1.789378 0 0)
(2.126692 0 0 2.126692 0 0)
(2.126692 0 0 2.076454 0 0)
(0.003515 0 0 0.29142 0 0)
(2.126692 0 0 2.076454 0 0)
(2.126692 0 0 2.091089 0 0)
(1.629435 0 0 6.308909 0 0)
(1.626324 0 0 1.842935 0 0)
(0 0 0 0.217413 0 0)
(1.62632 0 0 1.555247 0 0)
(0.963528 0 0 0.959531 0 0)
(3.409359 0 0 7.840272 0 7.457517)
(0.473244 0 0 1.828203 0 1.763799)
(0.059079 0 0 0.553855 0 1.967664)
(0.290019 0 0 1.822659 0 2.242588)
(3.507464 0 0 2.427132 0 2.184609)
(3.017049 0 0 2.063541 0 4.706516)
(2.166585 0 0 1.948225 0 0.680734)
(0.03844 0 0 0.194302 0 0.625)
(2.197552 0 0 1.907082 0 1.366771)
(1.440349 0 0 1.214417 0 0.815349)
(1.762155 0 0 0.919848 0 6.310677)
(1.009492 0 0 0.886719 0 0.876572)
(0.115547 0 0 0.097151 0 0.625)
(1.033137 0 0 0.902293 0 1.767073)
(2.153022 0 0 1.718142 0 0.761181)
(3.017049 0 0 2.063541 0 4.706516)
(2.191072 0 0 1.948225 0 0.680734)
(0.114997 0 0 0.194302 0 0.625)
(2.197552 0 0 1.914867 0 1.474081)
(2.432007 0 0 1.972026 0 0.680734)
(2.626147 0 0 7.370784 0 7.064584)
(1.704384 0 0 1.828205 0 0.877382)
(0.038428 0 0 0.31966 0 0.625)
(1.759547 0 0 1.82266 0 1.708762)
(1.213422 0 0 0.950513 0 0.904238)
(2.429106 0 0 2.433472 0 2.263811)
(0.07005 0 0 2.253867 0 1.943729)
(0.101959 0 0 1.844692 0 1.590332)
(0.114672 0 0 1.844698 0 1.590332)
(1.919103 0 0 2.430785 0 3.034985)
(2.250329 0 0 0.072379 0 1.688847)
(0 0 0 0 0 0.184422)
(0 0 0 0 0 0.096531)
(0 0 0 0 0 0.156115)
(1.942208 0 0 0.072379 0 0.625)
(1.844749 0 0 0.106046 0 1.943916)
(0 0 0 0 0 0.200195)
(0 0 0 0 0 0.117188)
(0 0 0 0 0 0.175781)
(1.590331 0 0 0.106046 0 0.625)
(1.844749 0 0 0.11895 0 1.590178)
(0 0 0 0 0 0.117188)
(0 0 0 0 0 0)
(0 0 0 0 0 0.058594)
(1.590331 0 0 0.11895 0 0.625)
(2.430785 0 0 1.920799 0 2.023323)
(0.07005 0 0 1.94367 0 0.394383)
(0.101959 0 0 1.590284 0 0.330906)
(0.114672 0 0 1.590288 0 0.39049)
(1.959017 0 0 1.959017 0 0.625)
(0.764978 0 0 0.99642 0 0)
(0.066622 0 0 0.168806 0 0)
(0.104152 0 0 0.130916 0 0)
(0.11385 0 0 0.130937 0 0)
(0.772614 0 0 0.299025 0 0)
(0.146113 0 0 0.080685 0 0)
(0 0 0 0 0 0)
(0 0 0 0 0 0)
(0 0 0 0 0 0)
(0.144736 0 0 0.080685 0 0)
(0.13125 0 0 0.118215 0 0)
(0 0 0 0 0 0)
(0 0 0 0 0 0)
(0 0 0 0 0 0)
(0.117188 0 0 0.118215 0 0)
(0.13125 0 0 0.1326 0 0)
(0 0 0 0 0 0)
(0 0 0 0 0 0)
(0 0 0 0 0 0)
(0.117187 0 0 0.1326 0 0)
(0.276369 0 0 0.874618 0 0)
(0.064293 0 0 0.155916 0 0)
(0.100065 0 0 0.116853 0 0)
(0.109572 0 0 0.116874 0 0)
(0.211036 0 0 0.222178 0 0)
(0.157079 0 0 0.796572 0 0)
(0.069088 0 0 0.057951 0 0)
(0.107937 0 0 0 0 0)
(0.118016 0 0 0 0 0)
(0.369194 0 0 0.204111 0 0)
(0.01161 0 0 0.088991 0 0)
(0 0 0 0 0 0)
(0 0 0 0 0 0)
(0 0 0 0 0 0)
(0.035102 0 0 0.088991 0 0)
(0 0 0 0.130384 0 0)
(0 0 0 0 0 0)
(0 0 0 0 0 0)
(0 0 0 0 0 0)
(0 0 0 0.130384 0 0)
(0 0 0 0.14625 0 0)
(0 0 0 0 0 0)
(0 0 0 0 0 0)
(0 0 0 0 0 0)
(0 0 0 0.14625 0 0)
(0.15786 0 0 0.702851 0 0)
(0.055025 0 0 0.057951 0 0)
(0.093874 0 0 0 0 0)
(0.099266 0 0 0 0 0)
(0.108227 0 0 0.130986 0 0)
(0.178439 0 0 0.817832 0 0)
(0.050045 0 0 0.056467 0 0)
(0.090588 0 0 0 0 0)
(0.093755 0 0 0 0 0)
(0.280869 0 0 0.203288 0 0)
(0.024399 0 0 0.088586 0 0)
(0 0 0 0 0 0)
(0 0 0 0 0 0)
(0 0 0 0 0 0)
(0.019663 0 0 0.088586 0 0)
(0.046875 0 0 0.129979 0 0)
(0 0 0 0 0 0)
(0 0 0 0 0 0)
(0 0 0 0 0 0)
(0 0 0 0.129979 0 0)
(0.046874 0 0 0.14571 0 0)
(0 0 0 0 0 0)
(0 0 0 0 0 0)
(0 0 0 0 0 0)
(0 0 0 0.14571 0 0)
(0.17003 0 0 0.72202 0 0)
(0.032471 0 0 0.056465 0 0)
(0.072229 0 0 0 0 0)
(0.0698 0 0 0 0 0)
(0.093494 0 0 0.13014 0 0)
(0.288279 0 0 1.034189 0 1067.5925)
(0.113261 0 0 0.420119 0 0.122481)
(0.140277 0 0 0.397094 0 0.106817)
(0.169025 0 0 0.397267 0 0.107854)
(0.122013 0 0 0.518043 0 0.150324)
(0.543936 0 0 0.058962 0 5878.8563)
(0.03037 0 0 0 0 0.082404)
(0.028734 0 0 0 0 0.048224)
(0.039403 0 0 0 0 0.048721)
(0.075756 0 0 0.058962 0 0.103707)
(0.543936 0 0 0.086765 0 15015302)
(0.109688 0 0 0 0 0.043945)
(0.109687 0 0 0 0 0)
(0.14625 0 0 0 0 0)
(0.073125 0 0 0.086765 0 0.087668)
(0.543936 0 0 0.097151 0 4053540.1)
(0.109138 0 0 0 0 0.058594)
(0.109138 0 0 0 0 0)
(0.145517 0 0 0 0 0)
(0.072759 0 0 0.097151 0 0.108643)
(0.543918 0 0 1.025133 0 104399.05)
(0.088783 0 0 0.203728 0 0.184942)
(0.11495 0 0 0.16271 0 0.16541)
(0.135822 0 0 0.162884 0 0.165907)
(0.125919 0 0 0.253763 0 0.189771)
(5.720969 0 0 5.140204 0 3.303967)
(1.378064 0 0 4.408605 0 2.48219)
(0.150982 0 0 2.023323 0 2.9604)
(1.529985 0 0 3.723592 0 4.665482)
(8.346382 0 0 3.50935 0 5.527632)
(4.814449 0 0 0.92146 0 4.083641)
(1.724053 0 0 1.447139 0 0.529111)
(0.15768 0 0 0.2379 0 0.625)
(1.845682 0 0 1.407724 0 2.936681)
(7.637389 0 0 1.408313 0 3.094463)
(5.283977 0 0 1.288949 0 5.04873)
(0.872544 0 0 0.659897 0 0.797674)
(0.153792 0 0 0.11895 0 0.625)
(1.017869 0 0 0.631669 0 3.468975)
(6.169958 0 0 0.639974 0 3.468974)
(5.363128 0 0 1.498396 0 4.0179)
(1.713476 0 0 1.454317 0 0.529111)
(0.153792 0 0 0.2379 0 0.625)
(1.845682 0 0 1.407724 0 2.936681)
(7.600644 0 0 1.408313 0 3.094463)
(4.086231 0 0 3.592686 0 5.251891)
(1.239037 0 0 4.080814 0 0.662734)
(0.15768 0 0 2.023323 0 0.625001)
(1.386491 0 0 3.701481 0 3.195273)
(6.128725 0 0 3.623471 0 3.125077)
(3.77425 0 0 3.990702 0 0)
(1.434625 0 0 1.722703 0 0)
(0 0 0 0.315753 0 0)
(1.358198 0 0 1.736844 0 0)
(4.398578 0 0 1.608882 0 0)
(1.198212 0 0 1.273485 0 0)
(2.111227 0 0 2.04502 0 0)
(0 0 0 0.2652 0 0)
(2.111227 0 0 2.038542 0 0)
(2.126692 0 0 2.126692 0 0)
(1.864635 0 0 1.768116 0 0)
(0.963535 0 0 0.959407 0 0)
(0.014063 0 0 0.1326 0 0)
(0.963535 0 0 0.906826 0 0)
(0.963535 0 0 0.952286 0 0)
(2.126692 0 0 2.056517 0 0)
(2.111932 0 0 2.056517 0 0)
(0.014062 0 0 0.2652 0 0)
(2.111932 0 0 2.038542 0 0)
(2.126692 0 0 2.126692 0 0)
(0.95456 0 0 2.415049 0 0)
(1.542838 0 0 1.716378 0 0)
(0 0 0 0.315753 0 0)
(1.550039 0 0 1.727867 0 0)
(1.473256 0 0 1.606616 0 0)
(2.964845 0 0 4.02038 0 0)
(0.886092 0 0 1.844574 0 0)
(0 0 0 0.218732 0 0)
(0.695406 0 0 1.64859 0 0)
(3.825528 0 0 1.854056 0 0)
(1.198212 0 0 1.285208 0 0)
(2.089997 0 0 2.063484 0 0)
(0 0 0 0.2925 0 0)
(2.089997 0 0 2.076283 0 0)
(2.126692 0 0 2.126692 0 0)
(1.864635 0 0 1.776109 0 0)
(0.963535 0 0 0.963535 0 0)
(0 0 0 0.14625 0 0)
(0.963535 0 0 0.913954 0 0)
(0.963535 0 0 0.963535 0 0)
(2.126692 0 0 2.076283 0 0)
(2.126692 0 0 2.076283 0 0)
(0 0 0 0.2925 0 0)
(2.126692 0 0 2.076283 0 0)
(2.126692 0 0 2.126692 0 0)
(0.963525 0 0 2.103868 0 0)
(1.629442 0 0 1.741182 0 0)
(0 0 0 0.218733 0 0)
(1.629439 0 0 1.648591 0 0)
(1.629446 0 0 1.854059 0 0)
(2.656853 0 0 4.064247 0 0)
(0.716165 0 0 1.842934 0 0)
(0 0 0 0.217413 0 0)
(0.467809 0 0 1.646968 0 0)
(3.655497 0 0 1.85302 0 0)
(1.198212 0 0 1.294552 0 0)
(2.072595 0 0 2.063654 0 0)
(0 0 0 0.29142 0 0)
(2.072595 0 0 2.076454 0 0)
(2.126692 0 0 2.126692 0 0)
(1.864635 0 0 1.789378 0 0)
(0.963535 0 0 0.963535 0 0)
(0.003516 0 0 0.14571 0 0)
(0.963535 0 0 0.914455 0 0)
(0.963535 0 0 0.963535 0 0)
(2.126692 0 0 2.091089 0 0)
(2.126692 0 0 2.076454 0 0)
(0.003515 0 0 0.29142 0 0)
(2.126692 0 0 2.076454 0 0)
(2.126692 0 0 2.126692 0 0)
(0.963521 0 0 2.128154 0 0)
(1.626324 0 0 1.740157 0 0)
(0 0 0 0.217413 0 0)
(1.62632 0 0 1.64697 0 0)
(1.629444 0 0 1.853023 0 0)
(3.334138 0 0 5.937095 0 2.038912)
(0.473244 0 0 1.828204 0 1.753701)
(0.059079 0 0 0.553855 0 1.973374)
(0.290019 0 0 1.822658 0 2.210574)
(4.694622 0 0 1.830581 0 2.86106)
(2.241112 0 0 1.215418 0 2.979503)
(2.166585 0 0 1.940246 0 0.680734)
(0.03844 0 0 0.194302 0 0.625)
(2.197552 0 0 1.914867 0 1.474216)
(3.017049 0 0 2.056398 0 1.513294)
(3.017964 0 0 1.71956 0 2.644645)
(1.009492 0 0 0.917799 0 0.876572)
(0.115547 0 0 0.097151 0 0.625)
(1.033137 0 0 0.871971 0 1.767073)
(1.762155 0 0 0.902396 0 1.767073)
(3.312889 0 0 1.973632 0 2.345306)
(2.191072 0 0 1.948225 0 0.680734)
(0.114997 0 0 0.194302 0 0.625)
(2.197552 0 0 1.914867 0 1.474216)
(3.017049 0 0 2.056398 0 1.513294)
(2.01744 0 0 2.72547 0 3.919943)
(1.704383 0 0 1.828204 0 0.877382)
(0.038427 0 0 0.31966 0 0.625)
(1.759548 0 0 1.82266 0 1.814531)
(2.626162 0 0 1.830583 0 1.889045)
(8.669946 0 0 4.889 0 12.57958)
(1.378064 0 0 4.408605 0 2.495519)
(0.150982 0 0 2.023323 0 2.9604)
(1.529985 0 0 3.422931 0 4.449144)
(3.921265 0 0 3.102523 0 2.490391)
(7.637389 0 0 1.528241 0 9.965904)
(1.724053 0 0 1.454317 0 0.539561)
(0.15768 0 0 0.245822 0 0.625001)
(1.69645 0 0 1.55299 0 1.360767)
(4.061521 0 0 1.239036 0 2.416286)
(6.169958 0 0 0.698727 0 11.96325)
(0.869587 0 0 0.64941 0 0.797674)
(0.15768 0 0 0.065053 0 0.625001)
(0.2514 0 0 0.090292 0 0.489696)
(2.023323 0 0 0.15768 0 0.625)
(7.637389 0 0 1.496342 0 9.965904)
(0.189417 0 0 0.199238 0 0.645151)
(0.653472 0 0 1.014632 0 3.426734)
(1.407724 0 0 1.845681 0 3.094463)
(3.701563 0 0 1.38649 0 4.00517)
(5.990169 0 0 8.155464 0 5.617353)
(1.408313 0 0 7.637389 0 3.094462)
(0.639974 0 0 6.169957 0 3.322648)
(1.408313 0 0 7.60055 0 2.93668)
(3.623471 0 0 6.128725 0 3.080663)
(4.337541 0 0 5.272253 0 0)
(1.434625 0 0 1.722703 0 0)
(0 0 0 0.315753 0 0)
(1.358198 0 0 1.67405 0 0)
(2.482101 0 0 0.948363 0 0)
(2.126692 0 0 2.126692 0 0)
(2.111227 0 0 2.056517 0 0)
(0 0 0 0.269161 0 0)
(1.999176 0 0 1.999844 0 0)
(1.685464 0 0 1.523318 0 0)
(0.963535 0 0 0.963535 0 0)
(0.958478 0 0 0.914536 0 0)
(0.07612 0 0 0.069089 0 0)
(0.27195 0 0 0.007477 0 0)
(0.316088 0 0 0.012164 0 0)
(2.126692 0 0 2.077669 0 0)
(0.205205 0 0 0.210338 0 0)
(0.91087 0 0 0.958478 0 0)
(2.038542 0 0 2.111932 0 0)
(1.685464 0 0 1.523318 0 0)
(2.013101 0 0 7.311431 0 0)
(2.05054 0 0 2.150533 0 0)
(0.952651 0 0 0.963423 0 0)
(2.159307 0 0 2.159119 0 0)
(1.60678 0 0 1.473173 0 0)
(3.221745 0 0 6.314095 0 0)
(0.886091 0 0 1.844574 0 0)
(0 0 0 0.218732 0 0)
(0.695406 0 0 1.556297 0 0)
(1.807307 0 0 0.960244 0 0)
(2.126692 0 0 2.126692 0 0)
(2.089997 0 0 2.076283 0 0)
(0 0 0 0.2925 0 0)
(1.978587 0 0 2.020185 0 0)
(1.65854 0 0 1.523318 0 0)
(0.963535 0 0 0.963535 0 0)
(0.963535 0 0 0.913954 0 0)
(0.073125 0 0 0.073125 0 0)
(0.2925 0 0 0 0 0)
(0.219375 0 0 0 0 0)
(2.126692 0 0 2.076283 0 0)
(0.219375 0 0 0.219375 0 0)
(0.913954 0 0 0.963535 0 0)
(2.076282 0 0 2.126692 0 0)
(1.591959 0 0 1.523318 0 0)
(2.478435 0 0 10.548264 0 0)
(2.20757 0 0 2.475153 0 0)
(0.963527 0 0 0.961431 0 0)
(2.478435 0 0 2.268418 0 0)
(1.858832 0 0 1.627437 0 0)
(2.869793 0 0 6.308904 0 0)
(0.716164 0 0 1.842933 0 0)
(0 0 0 0.217413 0 0)
(0.467809 0 0 1.555247 0 0)
(1.670223 0 0 0.959531 0 0)
(2.126692 0 0 2.126692 0 0)
(2.072595 0 0 2.076454 0 0)
(0 0 0 0.29241 0 0)
(1.957819 0 0 2.026332 0 0)
(1.646745 0 0 1.523318 0 0)
(0.963535 0 0 0.963535 0 0)
(0.963535 0 0 0.914455 0 0)
(0.07531 0 0 0.073552 0 0)
(0.293107 0 0 0.001869 0 0)
(0.218565 0 0 0.003041 0 0)
(2.126692 0 0 2.077964 0 0)
(0.22014 0 0 0.221424 0 0)
(0.916491 0 0 0.963535 0 0)
(2.076453 0 0 2.126692 0 0)
(1.592093 0 0 1.523318 0 0)
(2.478428 0 0 10.643696 0 0)
(2.209455 0 0 2.474245 0 0)
(0.963523 0 0 0.960897 0 0)
(2.478428 0 0 2.279908 0 0)
(1.858829 0 0 1.626977 0 0)
(3.409357 0 0 7.840272 0 7.457517)
(0.473243 0 0 1.828203 0 1.763799)
(0.059079 0 0 0.553855 0 1.973374)
(0.288706 0 0 1.822659 0 2.097547)
(1.553188 0 0 0.962353 0 0.904191)
(3.017049 0 0 2.063541 0 4.706516)
(2.166585 0 0 1.948225 0 0.680734)
(0.03844 0 0 0.196283 0 0.625)
(2.07525 0 0 1.928674 0 0.682727)
(1.616035 0 0 1.548878 0 0.744341)
(1.762155 0 0 0.919848 0 6.310677)
(1.009492 0 0 0.886719 0 0.876572)
(0.162001 0 0 0.04997 0 0.625)
(0.343927 0 0 0.022642 0 0.234828)
(0.218852 0 0 0.03844 0 0.200325)
(3.017049 0 0 1.954475 0 4.706516)
(0.257613 0 0 0.15093 0 0.342007)
(0.92902 0 0 1.000936 0 1.70659)
(2.063541 0 0 2.069727 0 1.513294)
(1.577226 0 0 1.569398 0 1.589141)
(3.61001 0 0 12.883845 0 4.221118)
(2.277036 0 0 2.633073 0 1.808477)
(0.956044 0 0 1.068601 0 1.631753)
(2.451324 0 0 2.630058 0 1.421462)
(1.838503 0 0 1.757178 0 1.78877)
(5.133418 0 0 5.728799 0 4.962073)
(0.920807 0 0 4.814449 0 6.109923)
(1.288042 0 0 5.283837 0 4.886469)
(1.49735 0 0 5.363003 0 4.896832)
(3.590014 0 0 4.086231 0 7.444602)
(4.408605 0 0 1.378064 0 1.643299)
(1.446164 0 0 1.724053 0 1.25466)
(0.659897 0 0 0.872544 0 1.117799)
(1.453338 0 0 1.713476 0 1.013214)
(4.078199 0 0 1.239036 0 2.314669)
(2.023323 0 0 0.151194 0 1.011662)
(0.2379 0 0 0.15768 0 0.551573)
(0.11895 0 0 0.153792 0 0.544625)
(0.2379 0 0 0.153792 0 0.606274)
(2.023323 0 0 0.15768 0 0.625)
(3.723676 0 0 1.529985 0 4.143234)
(1.407724 0 0 1.845681 0 3.094463)
(0.631669 0 0 1.017869 0 3.468975)
(1.407724 0 0 1.845681 0 3.094463)
(3.701563 0 0 1.38649 0 4.00517)
(3.50935 0 0 8.346382 0 4.256534)
(1.408313 0 0 7.637389 0 3.094462)
(0.639974 0 0 6.169957 0 3.074304)
(1.408313 0 0 7.60055 0 2.93668)
(3.623471 0 0 6.128725 0 3.080663)
(3.690435 0 0 4.085719 0 0)
(1.177299 0 0 1.216044 0 0)
(1.611928 0 0 1.89343 0 0)
(1.873707 0 0 2.165548 0 0)
(2.271099 0 0 0.948363 0 0)
(1.685464 0 0 1.523317 0 0)
(2.026469 0 0 2.126692 0 0)
(0.951012 0 0 0.963535 0 0)
(2.037862 0 0 2.111932 0 0)
(1.685464 0 0 1.523318 0 0)
(0.316087 0 0 0.014063 0 0)
(0.2652 0 0 0.014063 0 0)
(0.1326 0 0 0.014063 0 0)
(0.2652 0 0 0.014063 0 0)
(0.316088 0 0 0.014063 0 0)
(1.685463 0 0 1.523317 0 0)
(2.038542 0 0 2.126692 0 0)
(0.906826 0 0 0.963535 0 0)
(2.038542 0 0 2.111932 0 0)
(1.685464 0 0 1.523318 0 0)
(1.619479 0 0 4.615008 0 0)
(2.150674 0 0 2.150533 0 0)
(0.952283 0 0 0.963423 0 0)
(2.159307 0 0 2.159119 0 0)
(1.60678 0 0 1.473173 0 0)
(2.910359 0 0 4.119279 0 0)
(0.666928 0 0 1.244446 0 0)
(1.238291 0 0 2.027231 0 0)
(1.304554 0 0 2.294781 0 0)
(1.66582 0 0 0.960244 0 0)
(1.685464 0 0 1.523317 0 0)
(2.020994 0 0 2.126692 0 0)
(0.944394 0 0 0.963535 0 0)
(2.033529 0 0 2.126692 0 0)
(1.65854 0 0 1.523318 0 0)
(0.219375 0 0 0 0 0)
(0.2925 0 0 0 0 0)
(0.14625 0 0 0 0 0)
(0.2925 0 0 0 0 0)
(0.219375 0 0 0 0 0)
(1.591958 0 0 1.523317 0 0)
(2.076282 0 0 2.126692 0 0)
(0.913954 0 0 0.963535 0 0)
(2.076282 0 0 2.126692 0 0)
(1.591959 0 0 1.523318 0 0)
(1.858822 0 0 4.443538 0 0)
(2.478438 0 0 2.475153 0 0)
(0.963527 0 0 0.961431 0 0)
(2.478435 0 0 2.268418 0 0)
(1.858832 0 0 1.627437 0 0)
(2.589853 0 0 4.222437 0 0)
(0.495517 0 0 1.243234 0 0)
(1.043745 0 0 2.047621 0 0)
(1.044553 0 0 2.356781 0 0)
(1.54798 0 0 0.959531 0 0)
(1.685464 0 0 1.523317 0 0)
(1.993879 0 0 2.126692 0 0)
(0.932391 0 0 0.963535 0 0)
(2.006247 0 0 2.126692 0 0)
(1.64763 0 0 1.523318 0 0)
(0.276573 0 0 0.003516 0 0)
(0.29142 0 0 0.003516 0 0)
(0.14571 0 0 0.003516 0 0)
(0.29142 0 0 0.003516 0 0)
(0.218565 0 0 0.003516 0 0)
(1.592091 0 0 1.523317 0 0)
(2.076453 0 0 2.126692 0 0)
(0.914455 0 0 0.963535 0 0)
(2.076453 0 0 2.126692 0 0)
(1.592093 0 0 1.523318 0 0)
(1.858816 0 0 4.480892 0 0)
(2.478433 0 0 2.474245 0 0)
(0.963523 0 0 0.960897 0 0)
(2.478428 0 0 2.279908 0 0)
(1.858829 0 0 1.626977 0 0)
(2.913905 0 0 6.917465 0 3.858763)
(0.181153 0 0 1.692767 0 5.930165)
(0.716486 0 0 2.657158 0 5.828546)
(0.59096 0 0 3.175053 0 5.769362)
(1.488004 0 0 1.349693 0 5.989469)
(2.526576 0 0 1.559779 0 0.741114)
(2.038205 0 0 2.059039 0 0.680734)
(0.943931 0 0 1.009492 0 0.876571)
(2.04658 0 0 2.039836 0 0.680734)
(1.616035 0 0 1.548878 0 0.744341)
(0.625 0 0 0.03844 0 0.205424)
(0.30399 0 0 0.03844 0 0.243947)
(0.206839 0 0 0.03844 0 0.272228)
(0.340552 0 0 0.03844 0 0.273762)
(0.218852 0 0 0.03844 0 0.213613)
(2.47451 0 0 1.585493 0 1.506921)
(2.063541 0 0 2.089566 0 1.513294)
(0.924535 0 0 1.033137 0 1.767073)
(2.063541 0 0 2.069727 0 1.513294)
(1.577226 0 0 1.569398 0 1.589141)
(2.858864 0 0 5.686854 0 1.983635)