/*--------------------------------*- C++ -*----------------------------------*\
| =========                 |                                                 |
| \\      /  F ield         | OpenFOAM: The Open Source CFD Toolbox           |
|  \\    /   O peration     | Version:  dev                                   |
|   \\  /    A nd           | Website:  https://openfoam.org                  |
|    \\/     M anipulation  |                                                 |
\*---------------------------------------------------------------------------*/
FoamFile
{
    version     2.0;
    format      ascii;
    class       volSymmTensorField;
    location    "0";
    object      CT;
}
// * * * * * * * * * * * * * * * * * * * * * * * * * * * * * * * * * * * * * //

dimensions      [0 -1 0 0 0 0 0];

internalField   nonuniform List<symmTensor>
8025
(
(4.501854 0 0 3.437531 0 1.537743)
(0.000572 0 0 6.9153941e+09 0 56298.328)
(0.000461 0 0 14082324 0 238.79688)
(0.103252 0 0 0.344817 0 0.500184)
(0.210715 0 0 0.279468 0 0.395429)
(8.5626485e+09 0 0 0 0 9.4061557e+09)
(0.001095 0 0 0 0 0.015342)
(0.00022 0 0 1911223.6 0 0.017895)
(4.69814 0 0 0.051022 0 0.264461)
(0.170985 0 0 0.035737 0 0.120814)
(10109786 0 0 0 0 18210449)
(1527889.1 0 0 0 0 0.019425)
(0.000746 0 0 0.000242 0 0.017238)
(0.009273 0 0 0.008151 0 0.135984)
(0.101166 0 0 0.007884 0 0.028279)
(0.321998 0 0 3.099768 0 0.485715)
(0.047686 0 0 32.030122 0 0.026026)
(0.007884 0 0 16074847 0 0.03125)
(0.046731 0 0 0.057974 0 0.131235)
(0.123177 0 0 0.043879 0 0.200258)
(0.279468 0 0 0.210715 0 0.482544)
(0.035737 0 0 0.170985 0 0.033137)
(0.007884 0 0 0.101166 0 0.03125)
(0.043879 0 0 0.123174 0 0.159764)
(0.097951 0 0 0.097951 0 0.03125)
(6.2403205e+08 0 0 1.167071e+09 0 0)
(0 0 0 0.013474 0 0)
(0 0 0 3576771.4 0 0)
(7.285775 0 0 0.065977 0 0)
(0.1884 0 0 0.036861 0 0)
(0.014569 0 0 0 0 0)
(0 0 0 0 0 0)
(0 0 0 2490875.9 0 0)
(1.818732 0 0 0.05696 0 0)
(0.042137 0 0 0.038083 0 0)
(3152163.3 0 0 0 0 0)
(1990101.4 0 0 0 0 0)
(0 0 0 0 0 0)
(0.010121 0 0 0.000343 0 0)
(0.011853 0 0 0.000519 0 0)
(0.052123 0 0 4.633885 0 0)
(0.053167 0 0 1.818732 0 0)
(0.000352 0 0 0.01642 0 0)
(0.052123 0 0 0.064755 0 0)
(0.039259 0 0 0.038083 0 0)
(0.037036 0 0 0.200356 0 0)
(0.038571 0 0 0.042904 0 0)
(0 0 0 0.011841 0 0)
(0.038751 0 0 0.039631 0 0)
(0.014261 0 0 0.014679 0 0)
(1.837181 0 0 1.1524384e+09 0 0)
(0 0 0 0.003098 0 0)
(0 0 0 2987092.3 0 0)
(7.9360925e+09 0 0 0.080382 0 0)
(0.188053 0 0 0.040553 0 0)
(0.001359 0 0 0 0 0)
(0 0 0 0 0 0)
(0 0 0 2665771.7 0 0)
(1.818732 0 0 0.05696 0 0)
(0.042137 0 0 0.038083 0 0)
(2445326.3 0 0 0 0 0)
(2141326.6 0 0 0 0 0)
(0 0 0 0 0 0)
(0.010969 0 0 0 0 0)
(0.008227 0 0 0 0 0)
(0.052123 0 0 4.633885 0 0)
(0.053167 0 0 1.818732 0 0)
(0 0 0 0.011408 0 0)
(0.052123 0 0 0.064755 0 0)
(0.03559 0 0 0.038083 0 0)
(0.040736 0 0 0.236809 0 0)
(0.040736 0 0 0.045996 0 0)
(0 0 0 0.008202 0 0)
(0.040736 0 0 0.03662 0 0)
(0.010914 0 0 0.011767 0 0)
(0 0 0 1.1497783e+09 0 0)
(0 0 0 0.003081 0 0)
(0 0 0 3022408.8 0 0)
(7.2745509e+09 0 0 0.080265 0 0)
(0.172104 0 0 0.040514 0 0)
(0.002077 0 0 0 0 0)
(0 0 0 0 0 0)
(0 0 0 2705188.1 0 0)
(1.818732 0 0 0.05696 0 0)
(0.042137 0 0 0.038083 0 0)
(2486340.6 0 0 0 0 0)
(2179599 0 0 0 0 0)
(0 0 0 0 0 0)
(0.010983 0 0 8.6e-05 0 0)
(0.008196 0 0 0.00013 0 0)
(0.052123 0 0 4.633885 0 0)
(0.053167 0 0 1.818732 0 0)
(0.000132 0 0 0.011412 0 0)
(0.052123 0 0 0.064755 0 0)
(0.035592 0 0 0.038083 0 0)
(0.040736 0 0 0.236589 0 0)
(0.040658 0 0 0.045928 0 0)
(0 0 0 0.008153 0 0)
(0.040636 0 0 0.036568 0 0)
(0.010446 0 0 0.01182 0 0)
(0.873407 0 0 41694512 0 1372.5787)
(0 0 0 0 0 0.821879)
(0 0 0 856760.53 0 0.003168)
(5140740.2 0 0 0.087261 0 0.253165)
(0.15845 0 0 0.045982 0 0.188031)
(9419575.6 0 0 1574085 0 0.001465)
(0 0 0 0 0 0.000733)
(1396973.7 0 0 50031.719 0 0.003168)
(1.709794 0 0 0.059885 0 0.033999)
(0.039934 0 0 0.039536 0 0.037217)
(684504.62 0 0 878530.43 0 0.00759)
(159227.39 0 0 750105.48 0 0.004816)
(4.460419 0 0 0 0 0.005036)
(0.012881 0 0 0.001987 0 0.00862)
(0.008207 0 0 0.001922 0 0.011315)
(0.097049 0 0 3.484275 0 0.23022)
(0.055852 0 0 1.416538 0 0.034249)
(0.004312 0 0 0.007678 0 0.03125)
(0.053378 0 0 0.065603 0 0.064995)
(0.038611 0 0 0.041252 0 0.079457)
(0.089575 0 0 0.281303 0 0.400237)
(0.043512 0 0 0.044968 0 0.043869)
(0.001921 0 0 0.011987 0 0.03125)
(0.046215 0 0 0.043093 0 0.094452)
(0.009496 0 0 0.014606 0 0.004841)
(0.197356 0 0 0.388879 0 0.339349)
(0.038206 0 0 0.329375 0 0.379465)
(0.017468 0 0 0.283801 0 0.342104)
(0.038206 0 0 0.327666 0 0.340265)
(0.210715 0 0 0.279468 0 0.387037)
(0.177733 0 0 0.039789 0 0.121813)
(0.036333 0 0 0.048301 0 0.072309)
(0.016225 0 0 0.026477 0 0.090467)
(0.036333 0 0 0.047976 0 0.072309)
(0.170985 0 0 0.035737 0 0.120814)
(0.101166 0 0 0.00756 0 0.050583)
(0.008921 0 0 0.007884 0 0.025339)
(0.004461 0 0 0.00769 0 0.024818)
(0.008921 0 0 0.00769 0 0.026438)
(0.101166 0 0 0.007884 0 0.025917)
(0.148885 0 0 0.048486 0 0.190302)
(0.035022 0 0 0.056046 0 0.154723)
(0.015999 0 0 0.034391 0 0.173449)
(0.035193 0 0 0.056046 0 0.154723)
(0.135525 0 0 0.043879 0 0.200258)
(0.172898 0 0 0.192309 0 0.090936)
(0.022214 0 0 0.189047 0 0.084484)
(0.031215 0 0 0.197269 0 0.065644)
(0.036333 0 0 0.196727 0 0.06397)
(0.134465 0 0 0.154543 0 0.127807)
(0.184869 0 0 0.177772 0 0)
(0.048256 0 0 0.053874 0 0)
(0.015687 0 0 0.024078 0 0)
(0.044059 0 0 0.054132 0 0)
(0.1884 0 0 0.036861 0 0)
(0.042137 0 0 0.038083 0 0)
(0.050947 0 0 0.053167 0 0)
(0.022663 0 0 0.024088 0 0)
(0.050947 0 0 0.052798 0 0)
(0.042137 0 0 0.038083 0 0)
(0.011853 0 0 0.000527 0 0)
(0.009945 0 0 0.000527 0 0)
(0.004972 0 0 0.000527 0 0)
(0.009945 0 0 0.000527 0 0)
(0.011853 0 0 0.000527 0 0)
(0.042137 0 0 0.038083 0 0)
(0.050679 0 0 0.053167 0 0)
(0.023783 0 0 0.024088 0 0)
(0.050964 0 0 0.052798 0 0)
(0.041344 0 0 0.038083 0 0)
(0.052778 0 0 0.120107 0 0)
(0.031797 0 0 0.03032 0 0)
(0.044053 0 0 0.04721 0 0)
(0.051252 0 0 0.053967 0 0)
(0.02368 0 0 0.023674 0 0)
(0.143381 0 0 0.163069 0 0)
(0.022217 0 0 0.061677 0 0)
(0 0 0 0.023893 0 0)
(0.011341 0 0 0.056453 0 0)
(0.188053 0 0 0.040553 0 0)
(0.042137 0 0 0.038083 0 0)
(0.050838 0 0 0.053167 0 0)
(0.022395 0 0 0.024088 0 0)
(0.050838 0 0 0.053167 0 0)
(0.042137 0 0 0.038083 0 0)
(0.008227 0 0 0 0 0)
(0.010969 0 0 0 0 0)
(0.005484 0 0 0 0 0)
(0.010969 0 0 0 0 0)
(0.008227 0 0 0 0 0)
(0.039799 0 0 0.038083 0 0)
(0.051587 0 0 0.053167 0 0)
(0.024088 0 0 0.024088 0 0)
(0.051907 0 0 0.053167 0 0)
(0.037636 0 0 0.038083 0 0)
(0.060344 0 0 0.113061 0 0)
(0.032315 0 0 0.031014 0 0)
(0.045426 0 0 0.050573 0 0)
(0.053989 0 0 0.057207 0 0)
(0.024088 0 0 0.023934 0 0)
(0.116589 0 0 0.164535 0 0)
(0.013615 0 0 0.061604 0 0)
(0 0 0 0.023845 0 0)
(0 0 0 0.056681 0 0)
(0.172104 0 0 0.040514 0 0)
(0.042137 0 0 0.038083 0 0)
(0.050156 0 0 0.053167 0 0)
(0.022115 0 0 0.024088 0 0)
(0.050156 0 0 0.053167 0 0)
(0.042137 0 0 0.038083 0 0)
(0.010371 0 0 0.000132 0 0)
(0.010928 0 0 0.000132 0 0)
(0.005464 0 0 0.000132 0 0)
(0.010928 0 0 0.000132 0 0)
(0.008196 0 0 0.000132 0 0)
(0.039802 0 0 0.038083 0 0)
(0.051591 0 0 0.053167 0 0)
(0.024088 0 0 0.024088 0 0)
(0.051911 0 0 0.053167 0 0)
(0.037648 0 0 0.038083 0 0)
(0.059821 0 0 0.115363 0 0)
(0.032097 0 0 0.030961 0 0)
(0.045127 0 0 0.051055 0 0)
(0.053621 0 0 0.058326 0 0)
(0.024088 0 0 0.023902 0 0)
(0.125212 0 0 0.215043 0 0.143309)
(0 0 0 0.067928 0 0.180863)
(0.003552 0 0 0.028607 0 0.164147)
(0 0 0 0.067654 0 0.159672)
(0.15845 0 0 0.045982 0 0.183398)
(0.085079 0 0 0.039815 0 0.033043)
(0.050569 0 0 0.052107 0 0.034037)
(0.02297 0 0 0.026155 0 0.043829)
(0.050569 0 0 0.051615 0 0.034037)
(0.039934 0 0 0.039536 0 0.037217)
(0.03125 0 0 0.001922 0 0.011672)
(0.0114 0 0 0.001922 0 0.01175)
(0.007756 0 0 0.001922 0 0.012406)
(0.012771 0 0 0.001922 0 0.012484)
(0.008207 0 0 0.001922 0 0.011672)
(0.083301 0 0 0.041677 0 0.069217)
(0.050995 0 0 0.054051 0 0.075665)
(0.02285 0 0 0.027887 0 0.088354)
(0.050995 0 0 0.053519 0 0.075665)
(0.038976 0 0 0.041252 0 0.079457)
(0.112362 0 0 0.163366 0 0.03818)
(0.032544 0 0 0.042331 0 0.043895)
(0.047003 0 0 0.06553 0 0.041156)
(0.054562 0 0 0.077791 0 0.039841)
(0.023628 0 0 0.034073 0 0.045212)
(0.197356 0 0 0.388879 0 0.339349)
(0.038206 0 0 0.329375 0 0.379465)
(0.017468 0 0 0.283801 0 0.317678)
(0.037357 0 0 0.329375 0 0.322351)
(0.354877 0 0 0.256853 0 0.313461)
(0.177733 0 0 0.039789 0 0.121813)
(0.036333 0 0 0.048301 0 0.072309)
(0.016225 0 0 0.026376 0 0.090467)
(0.007311 0 0 0.007103 0 0.025968)
(0.329376 0 0 0.035208 0 0.154723)
(0.101166 0 0 0.00756 0 0.050583)
(0.009218 0 0 0.007884 0 0.022249)
(0.002439 0 0 0.007884 0 0.024503)
(0.03428 0 0 0.016743 0 0.172095)
(0.283801 0 0 0.015999 0 0.173449)
(0.135655 0 0 0.048486 0 0.197556)
(0.04275 0 0 0.049389 0 0.143566)
(0.004515 0 0 0.009428 0 0.011676)
(0.056046 0 0 0.035193 0 0.148976)
(0.327675 0 0 0.035208 0 0.154723)
(0.132281 0 0 0.165925 0 0.03521)
(0.035737 0 0 0.163049 0 0.033137)
(0.007884 0 0 0.101166 0 0.03125)
(0.04388 0 0 0.148562 0 0.159764)
(0.272179 0 0 0.14572 0 0.156254)
(0.184869 0 0 0.177772 0 0)
(0.048256 0 0 0.053874 0 0)
(0.015687 0 0 0.024078 0 0)
(0.042513 0 0 0.054132 0 0)
(0.287781 0 0 0.050158 0 0)
(0.042137 0 0 0.038083 0 0)
(0.050947 0 0 0.053167 0 0)
(0.022663 0 0 0.023962 0 0)
(0.007024 0 0 0.007695 0 0)
(0.053167 0 0 0.051038 0 0)
(0.011853 0 0 0.000527 0 0)
(0.010094 0 0 0.000527 0 0)
(0.002591 0 0 0.002855 0 0)
(0.023962 0 0 0.022772 0 0)
(0.024088 0 0 0.023816 0 0)
(0.041344 0 0 0.038083 0 0)
(0.049996 0 0 0.050437 0 0)
(0.00028 0 0 0.010198 0 0)
(0.052798 0 0 0.050964 0 0)
(0.053167 0 0 0.053167 0 0)
(0.023864 0 0 0.09537 0 0)
(0.038571 0 0 0.042904 0 0)
(0 0 0 0.011841 0 0)
(0.038751 0 0 0.04319 0 0)
(0.036831 0 0 0.040162 0 0)
(0.143381 0 0 0.163069 0 0)
(0.022217 0 0 0.061677 0 0)
(0 0 0 0.023893 0 0)
(0.013975 0 0 0.058099 0 0)
(0.295976 0 0 0.052989 0 0)
(0.042137 0 0 0.038083 0 0)
(0.050838 0 0 0.053167 0 0)
(0.022395 0 0 0.024088 0 0)
(0.006465 0 0 0.008227 0 0)
(0.053167 0 0 0.051907 0 0)
(0.008227 0 0 0 0 0)
(0.010969 0 0 0 0 0)
(0.002742 0 0 0.002742 0 0)
(0.024088 0 0 0.022849 0 0)
(0.024088 0 0 0.024088 0 0)
(0.037636 0 0 0.038083 0 0)
(0.050505 0 0 0.050505 0 0)
(0 0 0 0.010969 0 0)
(0.053167 0 0 0.051907 0 0)
(0.053167 0 0 0.053167 0 0)
(0.024088 0 0 0.081279 0 0)
(0.040736 0 0 0.043425 0 0)
(0 0 0 0.008202 0 0)
(0.040736 0 0 0.041067 0 0)
(0.040736 0 0 0.046256 0 0)
(0.116589 0 0 0.164535 0 0)
(0.013615 0 0 0.061604 0 0)
(0 0 0 0.023845 0 0)
(0.003554 0 0 0.058303 0 0)
(0.31195 0 0 0.055195 0 0)
(0.042137 0 0 0.038083 0 0)
(0.050156 0 0 0.053167 0 0)
(0.022115 0 0 0.024088 0 0)
(0.005457 0 0 0.008255 0 0)
(0.053167 0 0 0.051949 0 0)
(0.010371 0 0 0.000132 0 0)
(0.010965 0 0 0.000132 0 0)
(0.002758 0 0 0.002824 0 0)
(0.024088 0 0 0.022912 0 0)
(0.024088 0 0 0.024088 0 0)
(0.037648 0 0 0.038083 0 0)
(0.050658 0 0 0.050658 0 0)
(7e-05 0 0 0.010992 0 0)
(0.053167 0 0 0.051911 0 0)
(0.053167 0 0 0.053167 0 0)
(0.024088 0 0 0.082227 0 0)
(0.040644 0 0 0.043352 0 0)
(0 0 0 0.008153 0 0)
(0.040658 0 0 0.040997 0 0)
(0.040736 0 0 0.046212 0 0)
(0.125212 0 0 0.215043 0 0.143309)
(0 0 0 0.067928 0 0.180863)
(0.003552 0 0 0.028607 0 0.151402)
(0 0 0 0.067654 0 0.150093)
(0.315098 0 0 0.056171 0 0.149798)
(0.085079 0 0 0.039815 0 0.033043)
(0.050569 0 0 0.052107 0 0.034037)
(0.02297 0 0 0.024975 0 0.043829)
(0.007137 0 0 0.005568 0 0.012981)
(0.097926 0 0 0.047393 0 0.075665)
(0.03125 0 0 0.001922 0 0.011514)
(0.011474 0 0 0.001922 0 0.010205)
(0.005987 0 0 0.001962 0 0.012248)
(0.027827 0 0 0.02185 0 0.087952)
(0.064338 0 0 0.022319 0 0.088354)
(0.083301 0 0 0.041677 0 0.071855)
(0.053446 0 0 0.050363 0 0.070549)
(0.004207 0 0 0.007413 0 0.006567)
(0.056952 0 0 0.047369 0 0.074778)
(0.097926 0 0 0.050821 0 0.075665)
(0.063125 0 0 0.105209 0 0.003088)
(0.043481 0 0 0.044968 0 0.041303)
(0.001921 0 0 0.011987 0 0.03125)
(0.04627 0 0 0.04471 0 0.090727)
(0.089575 0 0 0.045068 0 0.094452)
(0.388879 0 0 0.197356 0 0.628979)
(0.039789 0 0 0.177733 0 0.124776)
(0.007549 0 0 0.101166 0 0.147592)
(0.048486 0 0 0.148881 0 0.236314)
(0.192165 0 0 0.172898 0 0.216662)
(0.329376 0 0 0.038206 0 0.498295)
(0.048301 0 0 0.036358 0 0.020234)
(0.007884 0 0 0.008921 0 0.03125)
(0.056046 0 0 0.035022 0 0.136057)
(0.189047 0 0 0.022229 0 0.085721)
(0.283801 0 0 0.017468 0 0.598162)
(0.026477 0 0 0.016235 0 0.039884)
(0.00769 0 0 0.004461 0 0.03125)
(0.034391 0 0 0.015999 0 0.173449)
(0.197274 0 0 0.031237 0 0.080524)
(0.327675 0 0 0.038206 0 0.498295)
(0.047976 0 0 0.036358 0 0.019924)
(0.00769 0 0 0.008921 0 0.03125)
(0.056046 0 0 0.035193 0 0.146821)
(0.196732 0 0 0.036358 0 0.072309)
(0.279468 0 0 0.210715 0 0.482544)
(0.035737 0 0 0.170985 0 0.033137)
(0.007884 0 0 0.101166 0 0.03125)
(0.043879 0 0 0.135522 0 0.159764)
(0.154543 0 0 0.134465 0 0.081973)
(0.162806 0 0 0.202083 0 0)
(0.033361 0 0 0.043062 0 0)
(0 0 0 0.011841 0 0)
(0.029327 0 0 0.043414 0 0)
(0.113276 0 0 0.052492 0 0)
(0.053167 0 0 0.053167 0 0)
(0.052781 0 0 0.051413 0 0)
(0 0 0 0.009945 0 0)
(0.052781 0 0 0.050679 0 0)
(0.029955 0 0 0.031837 0 0)
(0.024088 0 0 0.024088 0 0)
(0.024088 0 0 0.022863 0 0)
(0.000527 0 0 0.004972 0 0)
(0.024088 0 0 0.023783 0 0)
(0.046616 0 0 0.044203 0 0)
(0.053167 0 0 0.053167 0 0)
(0.052798 0 0 0.051413 0 0)
(0.000527 0 0 0.009945 0 0)
(0.052798 0 0 0.050964 0 0)
(0.053167 0 0 0.051413 0 0)
(0.037036 0 0 0.200356 0 0)
(0.038571 0 0 0.042904 0 0)
(0 0 0 0.011841 0 0)
(0.038751 0 0 0.041755 0 0)
(0.02368 0 0 0.023674 0 0)
(0.107333 0 0 0.236809 0 0)
(0.007851 0 0 0.045996 0 0)
(0 0 0 0.008202 0 0)
(0 0 0 0.041067 0 0)
(0.087654 0 0 0.058313 0 0)
(0.053167 0 0 0.053167 0 0)
(0.05225 0 0 0.051907 0 0)
(0 0 0 0.010969 0 0)
(0.05225 0 0 0.051587 0 0)
(0.029955 0 0 0.03213 0 0)
(0.024088 0 0 0.024088 0 0)
(0.024088 0 0 0.022849 0 0)
(0 0 0 0.005484 0 0)
(0.024088 0 0 0.024088 0 0)
(0.046616 0 0 0.044403 0 0)
(0.053167 0 0 0.053167 0 0)
(0.053167 0 0 0.051907 0 0)
(0 0 0 0.010969 0 0)
(0.053167 0 0 0.051907 0 0)
(0.053167 0 0 0.051907 0 0)
(0.040736 0 0 0.236809 0 0)
(0.040736 0 0 0.045996 0 0)
(0 0 0 0.008202 0 0)
(0.040736 0 0 0.038777 0 0)
(0.024088 0 0 0.023934 0 0)
(0.091512 0 0 0.236589 0 0)
(0.000807 0 0 0.045928 0 0)
(0 0 0 0.008153 0 0)
(0 0 0 0.040997 0 0)
(0.086265 0 0 0.061692 0 0)
(0.053167 0 0 0.053167 0 0)
(0.051815 0 0 0.051911 0 0)
(0 0 0 0.010928 0 0)
(0.051815 0 0 0.051591 0 0)
(0.029955 0 0 0.032364 0 0)
(0.024088 0 0 0.024088 0 0)
(0.024088 0 0 0.022861 0 0)
(0.000132 0 0 0.005464 0 0)
(0.024088 0 0 0.024088 0 0)
(0.046616 0 0 0.044734 0 0)
(0.053167 0 0 0.053167 0 0)
(0.053167 0 0 0.051911 0 0)
(0.000132 0 0 0.010928 0 0)
(0.053167 0 0 0.051911 0 0)
(0.053167 0 0 0.052277 0 0)
(0.040736 0 0 0.236589 0 0)
(0.040658 0 0 0.045928 0 0)
(0 0 0 0.008153 0 0)
(0.040658 0 0 0.038725 0 0)
(0.024088 0 0 0.023902 0 0)
(0.113065 0 0 0.301405 0 0.372876)
(0 0 0 0.044968 0 0.08819)
(0.002215 0 0 0.02077 0 0.098383)
(0.010876 0 0 0.04471 0 0.112129)
(0.094424 0 0 0.060197 0 0.10923)
(0.097926 0 0 0.050995 0 0.235326)
(0.054869 0 0 0.048195 0 0.034037)
(0.001922 0 0 0.007286 0 0.03125)
(0.056952 0 0 0.047178 0 0.068339)
(0.039973 0 0 0.029973 0 0.040767)
(0.064338 0 0 0.022736 0 0.315534)
(0.026155 0 0 0.021933 0 0.043829)
(0.004333 0 0 0.003643 0 0.03125)
(0.027887 0 0 0.022308 0 0.088354)
(0.057883 0 0 0.042593 0 0.038059)
(0.097926 0 0 0.050995 0 0.235326)
(0.055498 0 0 0.048195 0 0.034037)
(0.004312 0 0 0.007286 0 0.03125)
(0.056952 0 0 0.047369 0 0.073704)
(0.064853 0 0 0.048776 0 0.034037)
(0.089575 0 0 0.281303 0 0.353229)
(0.043512 0 0 0.044968 0 0.043869)
(0.001921 0 0 0.011987 0 0.03125)
(0.04627 0 0 0.04471 0 0.085438)
(0.034367 0 0 0.023368 0 0.045212)
(0.121455 0 0 0.121674 0 0.113191)
(0.002627 0 0 0.112693 0 0.097186)
(0.003823 0 0 0.092235 0 0.079517)
(0.0043 0 0 0.092235 0 0.079517)
(0.095955 0 0 0.121539 0 0.151749)
(0.112516 0 0 0.002714 0 0.084442)
(0 0 0 0 0 0.006916)
(0 0 0 0 0 0.00362)
(0 0 0 0 0 0.005854)
(0.09711 0 0 0.002714 0 0.03125)
(0.092237 0 0 0.003977 0 0.097196)
(0 0 0 0 0 0.007507)
(0 0 0 0 0 0.004395)
(0 0 0 0 0 0.006592)
(0.079517 0 0 0.003977 0 0.03125)
(0.092237 0 0 0.004461 0 0.079509)
(0 0 0 0 0 0.004395)
(0 0 0 0 0 0)
(0 0 0 0 0 0.002197)
(0.079517 0 0 0.004461 0 0.03125)
(0.121539 0 0 0.09604 0 0.101166)
(0.002627 0 0 0.097184 0 0.014789)
(0.003823 0 0 0.079514 0 0.012409)
(0.0043 0 0 0.079514 0 0.014643)
(0.097951 0 0 0.097951 0 0.03125)
(0.038249 0 0 0.049821 0 0)
(0.002498 0 0 0.00633 0 0)
(0.003906 0 0 0.004909 0 0)
(0.004269 0 0 0.00491 0 0)
(0.038631 0 0 0.011213 0 0)
(0.005479 0 0 0.003026 0 0)
(0 0 0 0 0 0)
(0 0 0 0 0 0)
(0 0 0 0 0 0)
(0.005428 0 0 0.003026 0 0)
(0.004922 0 0 0.004433 0 0)
(0 0 0 0 0 0)
(0 0 0 0 0 0)
(0 0 0 0 0 0)
(0.004395 0 0 0.004433 0 0)
(0.004922 0 0 0.004972 0 0)
(0 0 0 0 0 0)
(0 0 0 0 0 0)
(0 0 0 0 0 0)
(0.004395 0 0 0.004972 0 0)
(0.010364 0 0 0.043731 0 0)
(0.002411 0 0 0.005847 0 0)
(0.003752 0 0 0.004382 0 0)
(0.004109 0 0 0.004383 0 0)
(0.007914 0 0 0.008332 0 0)
(0.00589 0 0 0.039829 0 0)
(0.002591 0 0 0.002173 0 0)
(0.004048 0 0 0 0 0)
(0.004426 0 0 0 0 0)
(0.01846 0 0 0.007654 0 0)
(0.000435 0 0 0.003337 0 0)
(0 0 0 0 0 0)
(0 0 0 0 0 0)
(0 0 0 0 0 0)
(0.001316 0 0 0.003337 0 0)
(0 0 0 0.004889 0 0)
(0 0 0 0 0 0)
(0 0 0 0 0 0)
(0 0 0 0 0 0)
(0 0 0 0.004889 0 0)
(0 0 0 0.005484 0 0)
(0 0 0 0 0 0)
(0 0 0 0 0 0)
(0 0 0 0 0 0)
(0 0 0 0.005484 0 0)
(0.00592 0 0 0.035143 0 0)
(0.002063 0 0 0.002173 0 0)
(0.00352 0 0 0 0 0)
(0.003722 0 0 0 0 0)
(0.004059 0 0 0.004912 0 0)
(0.006691 0 0 0.040892 0 0)
(0.001877 0 0 0.002118 0 0)
(0.003397 0 0 0 0 0)
(0.003516 0 0 0 0 0)
(0.014043 0 0 0.007623 0 0)
(0.000915 0 0 0.003322 0 0)
(0 0 0 0 0 0)
(0 0 0 0 0 0)
(0 0 0 0 0 0)
(0.000737 0 0 0.003322 0 0)
(0.001758 0 0 0.004874 0 0)
(0 0 0 0 0 0)
(0 0 0 0 0 0)
(0 0 0 0 0 0)
(0 0 0 0.004874 0 0)
(0.001758 0 0 0.005464 0 0)
(0 0 0 0 0 0)
(0 0 0 0 0 0)
(0 0 0 0 0 0)
(0 0 0 0.005464 0 0)
(0.006376 0 0 0.036101 0 0)
(0.001218 0 0 0.002117 0 0)
(0.002709 0 0 0 0 0)
(0.002617 0 0 0 0 0)
(0.003506 0 0 0.00488 0 0)
(0.01081 0 0 0.051709 0 53.379624)
(0.004247 0 0 0.015754 0 0.004593)
(0.00526 0 0 0.014891 0 0.004006)
(0.006338 0 0 0.014898 0 0.004045)
(0.004575 0 0 0.019427 0 0.005637)
(0.027197 0 0 0.002211 0 293.94281)
(0.001139 0 0 0 0 0.00309)
(0.001078 0 0 0 0 0.001808)
(0.001478 0 0 0 0 0.001827)
(0.002841 0 0 0.002211 0 0.003889)
(0.027197 0 0 0.003254 0 750765.08)
(0.004113 0 0 0 0 0.001648)
(0.004113 0 0 0 0 0)
(0.005484 0 0 0 0 0)
(0.002742 0 0 0.003254 0 0.003288)
(0.027197 0 0 0.003643 0 202677)
(0.004093 0 0 0 0 0.002197)
(0.004093 0 0 0 0 0)
(0.005457 0 0 0 0 0)
(0.002728 0 0 0.003643 0 0.004074)
(0.027196 0 0 0.051257 0 5219.9526)
(0.003329 0 0 0.00764 0 0.006935)
(0.004311 0 0 0.006102 0 0.006203)
(0.005093 0 0 0.006108 0 0.006222)
(0.004722 0 0 0.009516 0 0.007116)
(0.223287 0 0 0.19614 0 0.165198)
(0.039789 0 0 0.177733 0 0.124109)
(0.007549 0 0 0.101166 0 0.14802)
(0.048486 0 0 0.148881 0 0.233274)
(0.374257 0 0 0.141073 0 0.276382)
(0.205532 0 0 0.023036 0 0.204182)
(0.048301 0 0 0.036178 0 0.026456)
(0.007884 0 0 0.008921 0 0.03125)
(0.056046 0 0 0.035193 0 0.146834)
(0.329376 0 0 0.035208 0 0.154723)
(0.212916 0 0 0.032224 0 0.252436)
(0.026477 0 0 0.016497 0 0.039884)
(0.00769 0 0 0.004461 0 0.03125)
(0.034391 0 0 0.015792 0 0.173449)
(0.283801 0 0 0.015999 0 0.173449)
(0.211769 0 0 0.03746 0 0.200895)
(0.047976 0 0 0.036358 0 0.026456)
(0.00769 0 0 0.008921 0 0.03125)
(0.056046 0 0 0.035193 0 0.146834)
(0.327675 0 0 0.035208 0 0.154723)
(0.178239 0 0 0.148474 0 0.262595)
(0.035737 0 0 0.163788 0 0.033137)
(0.007884 0 0 0.101166 0 0.03125)
(0.04388 0 0 0.148562 0 0.159764)
(0.272179 0 0 0.14572 0 0.156254)
(0.116657 0 0 0.127789 0 0)
(0.033361 0 0 0.043062 0 0)
(0 0 0 0.011841 0 0)
(0.029327 0 0 0.043414 0 0)
(0.166698 0 0 0.040219 0 0)
(0.029955 0 0 0.031837 0 0)
(0.052781 0 0 0.051125 0 0)
(0 0 0 0.009945 0 0)
(0.052781 0 0 0.050964 0 0)
(0.053167 0 0 0.053167 0 0)
(0.046616 0 0 0.044203 0 0)
(0.024088 0 0 0.023985 0 0)
(0.000527 0 0 0.004972 0 0)
(0.024088 0 0 0.022671 0 0)
(0.024088 0 0 0.023807 0 0)
(0.053167 0 0 0.051413 0 0)
(0.052798 0 0 0.051413 0 0)
(0.000527 0 0 0.009945 0 0)
(0.052798 0 0 0.050964 0 0)
(0.053167 0 0 0.053167 0 0)
(0.023864 0 0 0.085961 0 0)
(0.038571 0 0 0.042904 0 0)
(0 0 0 0.011841 0 0)
(0.038751 0 0 0.04319 0 0)
(0.036831 0 0 0.040162 0 0)
(0.075006 0 0 0.12174 0 0)
(0.007851 0 0 0.045996 0 0)
(0 0 0 0.008202 0 0)
(0 0 0 0.041067 0 0)
(0.135095 0 0 0.046256 0 0)
(0.029955 0 0 0.03213 0 0)
(0.05225 0 0 0.051587 0 0)
(0 0 0 0.010969 0 0)
(0.05225 0 0 0.051907 0 0)
(0.053167 0 0 0.053167 0 0)
(0.046616 0 0 0.044403 0 0)
(0.024088 0 0 0.024088 0 0)
(0 0 0 0.005484 0 0)
(0.024088 0 0 0.022849 0 0)
(0.024088 0 0 0.024088 0 0)
(0.053167 0 0 0.051907 0 0)
(0.053167 0 0 0.051907 0 0)
(0 0 0 0.010969 0 0)
(0.053167 0 0 0.051907 0 0)
(0.053167 0 0 0.053167 0 0)
(0.024088 0 0 0.073065 0 0)
(0.040736 0 0 0.043425 0 0)
(0 0 0 0.008202 0 0)
(0.040736 0 0 0.041067 0 0)
(0.040736 0 0 0.046256 0 0)
(0.061289 0 0 0.123232 0 0)
(0.000807 0 0 0.045928 0 0)
(0 0 0 0.008153 0 0)
(0 0 0 0.040997 0 0)
(0.127444 0 0 0.046212 0 0)
(0.029955 0 0 0.032364 0 0)
(0.051815 0 0 0.051591 0 0)
(0 0 0 0.010928 0 0)
(0.051815 0 0 0.051911 0 0)
(0.053167 0 0 0.053167 0 0)
(0.046616 0 0 0.044734 0 0)
(0.024088 0 0 0.024088 0 0)
(0.000132 0 0 0.005464 0 0)
(0.024088 0 0 0.022861 0 0)
(0.024088 0 0 0.024088 0 0)
(0.053167 0 0 0.052277 0 0)
(0.053167 0 0 0.051911 0 0)
(0.000132 0 0 0.010928 0 0)
(0.053167 0 0 0.051911 0 0)
(0.053167 0 0 0.053167 0 0)
(0.024088 0 0 0.074018 0 0)
(0.040658 0 0 0.043376 0 0)
(0 0 0 0.008153 0 0)
(0.040658 0 0 0.040997 0 0)
(0.040736 0 0 0.046212 0 0)
(0.081534 0 0 0.189124 0 0.101946)
(0 0 0 0.044968 0 0.087685)
(0.002215 0 0 0.02077 0 0.098669)
(0.010876 0 0 0.04471 0 0.110529)
(0.175785 0 0 0.045068 0 0.143053)
(0.079233 0 0 0.029997 0 0.148975)
(0.054869 0 0 0.048 0 0.034037)
(0.001922 0 0 0.007286 0 0.03125)
(0.056952 0 0 0.047369 0 0.073711)
(0.097926 0 0 0.050821 0 0.075665)
(0.099977 0 0 0.042628 0 0.132232)
(0.026155 0 0 0.022692 0 0.043829)
(0.004333 0 0 0.003643 0 0.03125)
(0.027887 0 0 0.021568 0 0.088354)
(0.064338 0 0 0.02231 0 0.088354)
(0.107671 0 0 0.048815 0 0.117265)
(0.055498 0 0 0.048195 0 0.034037)
(0.004312 0 0 0.007286 0 0.03125)
(0.056952 0 0 0.047369 0 0.073711)
(0.097926 0 0 0.050821 0 0.075665)
(0.073805 0 0 0.097776 0 0.195997)
(0.043512 0 0 0.044968 0 0.043869)
(0.001921 0 0 0.011987 0 0.03125)
(0.04627 0 0 0.04471 0 0.090727)
(0.089575 0 0 0.045068 0 0.094452)
(0.388879 0 0 0.197356 0 0.628979)
(0.039789 0 0 0.177733 0 0.124776)
(0.007549 0 0 0.101166 0 0.14802)
(0.048486 0 0 0.135651 0 0.222457)
(0.165797 0 0 0.132281 0 0.12452)
(0.329376 0 0 0.038206 0 0.498295)
(0.048301 0 0 0.036358 0 0.020234)
(0.007884 0 0 0.009218 0 0.03125)
(0.049345 0 0 0.04275 0 0.068038)
(0.162934 0 0 0.035737 0 0.120814)
(0.283801 0 0 0.017468 0 0.598162)
(0.026376 0 0 0.016235 0 0.039884)
(0.007884 0 0 0.002439 0 0.03125)
(0.009428 0 0 0.004515 0 0.018364)
(0.101166 0 0 0.007884 0 0.03125)
(0.329376 0 0 0.037409 0 0.498295)
(0.007103 0 0 0.007471 0 0.024193)
(0.016743 0 0 0.03428 0 0.171337)
(0.035193 0 0 0.056046 0 0.154723)
(0.148566 0 0 0.043879 0 0.200258)
(0.256853 0 0 0.354877 0 0.280868)
(0.035208 0 0 0.329376 0 0.154723)
(0.015999 0 0 0.283801 0 0.166132)
(0.035208 0 0 0.32767 0 0.146834)
(0.14572 0 0 0.272179 0 0.154033)
(0.162806 0 0 0.202083 0 0)
(0.033361 0 0 0.043062 0 0)
(0 0 0 0.011841 0 0)
(0.029327 0 0 0.041845 0 0)
(0.08786 0 0 0.023706 0 0)
(0.053167 0 0 0.053167 0 0)
(0.052781 0 0 0.051413 0 0)
(0 0 0 0.010094 0 0)
(0.049979 0 0 0.049996 0 0)
(0.042137 0 0 0.038083 0 0)
(0.024088 0 0 0.024088 0 0)
(0.023962 0 0 0.022863 0 0)
(0.002855 0 0 0.002591 0 0)
(0.010198 0 0 0.00028 0 0)
(0.011853 0 0 0.000456 0 0)
(0.053167 0 0 0.051942 0 0)
(0.007695 0 0 0.007888 0 0)
(0.022772 0 0 0.023962 0 0)
(0.050964 0 0 0.052798 0 0)
(0.042137 0 0 0.038083 0 0)
(0.050327 0 0 0.297492 0 0)
(0.051263 0 0 0.053761 0 0)
(0.023816 0 0 0.024083 0 0)
(0.053983 0 0 0.053975 0 0)
(0.040169 0 0 0.036828 0 0)
(0.107333 0 0 0.236809 0 0)
(0.007851 0 0 0.045996 0 0)
(0 0 0 0.008202 0 0)
(0 0 0 0.038777 0 0)
(0.057449 0 0 0.023934 0 0)
(0.053167 0 0 0.053167 0 0)
(0.05225 0 0 0.051907 0 0)
(0 0 0 0.010969 0 0)
(0.049465 0 0 0.050505 0 0)
(0.041464 0 0 0.038083 0 0)
(0.024088 0 0 0.024088 0 0)
(0.024088 0 0 0.022849 0 0)
(0.002742 0 0 0.002742 0 0)
(0.010969 0 0 0 0 0)
(0.008227 0 0 0 0 0)
(0.053167 0 0 0.051907 0 0)
(0.008227 0 0 0.008227 0 0)
(0.022849 0 0 0.024088 0 0)
(0.051907 0 0 0.053167 0 0)
(0.039799 0 0 0.038083 0 0)
(0.061961 0 0 0.42215 0 0)
(0.055189 0 0 0.061819 0 0)
(0.024088 0 0 0.02399 0 0)
(0.061961 0 0 0.056632 0 0)
(0.046471 0 0 0.040645 0 0)
(0.091512 0 0 0.236589 0 0)
(0.000807 0 0 0.045928 0 0)
(0 0 0 0.008153 0 0)
(0 0 0 0.038725 0 0)
(0.050947 0 0 0.023902 0 0)
(0.053167 0 0 0.053167 0 0)
(0.051815 0 0 0.051911 0 0)
(0 0 0 0.010965 0 0)
(0.048945 0 0 0.050658 0 0)
(0.041169 0 0 0.038083 0 0)
(0.024088 0 0 0.024088 0 0)
(0.024088 0 0 0.022861 0 0)
(0.002824 0 0 0.002758 0 0)
(0.010992 0 0 7e-05 0 0)
(0.008196 0 0 0.000114 0 0)
(0.053167 0 0 0.051949 0 0)
(0.008255 0 0 0.008303 0 0)
(0.022912 0 0 0.024088 0 0)
(0.051911 0 0 0.053167 0 0)
(0.039802 0 0 0.038083 0 0)
(0.06196 0 0 0.426371 0 0)
(0.055236 0 0 0.061783 0 0)
(0.024088 0 0 0.023967 0 0)
(0.06196 0 0 0.056902 0 0)
(0.046471 0 0 0.040625 0 0)
(0.113065 0 0 0.301405 0 0.372876)
(0 0 0 0.044968 0 0.08819)
(0.002215 0 0 0.02077 0 0.098669)
(0.010826 0 0 0.04471 0 0.104877)
(0.042714 0 0 0.02396 0 0.04521)
(0.097926 0 0 0.050995 0 0.235326)
(0.054869 0 0 0.048195 0 0.034037)
(0.001922 0 0 0.007361 0 0.03125)
(0.053059 0 0 0.048623 0 0.034136)
(0.039934 0 0 0.039536 0 0.037217)
(0.064338 0 0 0.022736 0 0.315534)
(0.026155 0 0 0.021933 0 0.043829)
(0.006075 0 0 0.001874 0 0.03125)
(0.012897 0 0 0.001132 0 0.008806)
(0.008207 0 0 0.001922 0 0.007512)
(0.097926 0 0 0.048336 0 0.235326)
(0.00966 0 0 0.00566 0 0.012825)
(0.023071 0 0 0.02696 0 0.08533)
(0.050995 0 0 0.053519 0 0.075665)
(0.038976 0 0 0.041252 0 0.079457)
(0.117303 0 0 0.525152 0 0.211056)
(0.056317 0 0 0.068178 0 0.090424)
(0.023628 0 0 0.028779 0 0.081588)
(0.060566 0 0 0.06804 0 0.071073)
(0.045425 0 0 0.046142 0 0.089438)
(0.19585 0 0 0.223627 0 0.248104)
(0.02302 0 0 0.205532 0 0.305496)
(0.032201 0 0 0.21291 0 0.244323)
(0.037434 0 0 0.211764 0 0.244842)
(0.148354 0 0 0.178239 0 0.37223)
(0.177733 0 0 0.039789 0 0.082165)
(0.036154 0 0 0.048301 0 0.062733)
(0.016497 0 0 0.026477 0 0.05589)
(0.036333 0 0 0.047976 0 0.050661)
(0.163672 0 0 0.035737 0 0.115733)
(0.101166 0 0 0.00756 0 0.050583)
(0.008921 0 0 0.007884 0 0.020684)
(0.004461 0 0 0.00769 0 0.020423)
(0.008921 0 0 0.00769 0 0.022735)
(0.101166 0 0 0.007884 0 0.03125)
(0.148885 0 0 0.048486 0 0.207162)
(0.035193 0 0 0.056046 0 0.154723)
(0.015792 0 0 0.034391 0 0.173449)
(0.035193 0 0 0.056046 0 0.154723)
(0.148566 0 0 0.043879 0 0.200258)
(0.141073 0 0 0.374257 0 0.212827)
(0.035208 0 0 0.329376 0 0.154723)
(0.015999 0 0 0.283801 0 0.153715)
(0.035208 0 0 0.32767 0 0.146834)
(0.14572 0 0 0.272179 0 0.154033)
(0.113723 0 0 0.131263 0 0)
(0.027105 0 0 0.030397 0 0)
(0.036592 0 0 0.047331 0 0)
(0.042477 0 0 0.054132 0 0)
(0.079421 0 0 0.023706 0 0)
(0.042137 0 0 0.038083 0 0)
(0.050662 0 0 0.053167 0 0)
(0.023775 0 0 0.024088 0 0)
(0.050947 0 0 0.052798 0 0)
(0.042137 0 0 0.038083 0 0)
(0.011853 0 0 0.000527 0 0)
(0.009945 0 0 0.000527 0 0)
(0.004972 0 0 0.000527 0 0)
(0.009945 0 0 0.000527 0 0)
(0.011853 0 0 0.000527 0 0)
(0.042137 0 0 0.038083 0 0)
(0.050964 0 0 0.053167 0 0)
(0.022671 0 0 0.024088 0 0)
(0.050964 0 0 0.052798 0 0)
(0.042137 0 0 0.038083 0 0)
(0.040487 0 0 0.176565 0 0)
(0.053767 0 0 0.053761 0 0)
(0.023807 0 0 0.024083 0 0)
(0.053983 0 0 0.053975 0 0)
(0.040169 0 0 0.036828 0 0)
(0.073609 0 0 0.125131 0 0)
(0.002244 0 0 0.031014 0 0)
(0.018137 0 0 0.050573 0 0)
(0.013326 0 0 0.057207 0 0)
(0.052358 0 0 0.023934 0 0)
(0.042137 0 0 0.038083 0 0)
(0.050525 0 0 0.053167 0 0)
(0.02361 0 0 0.024088 0 0)
(0.050838 0 0 0.053167 0 0)
(0.041464 0 0 0.038083 0 0)
(0.008227 0 0 0 0 0)
(0.010969 0 0 0 0 0)
(0.005484 0 0 0 0 0)
(0.010969 0 0 0 0 0)
(0.008227 0 0 0 0 0)
(0.039799 0 0 0.038083 0 0)
(0.051907 0 0 0.053167 0 0)
(0.022849 0 0 0.024088 0 0)
(0.051907 0 0 0.053167 0 0)
(0.039799 0 0 0.038083 0 0)
(0.04647 0 0 0.163326 0 0)
(0.061961 0 0 0.061819 0 0)
(0.024088 0 0 0.02399 0 0)
(0.061961 0 0 0.056632 0 0)
(0.046471 0 0 0.040645 0 0)
(0.059919 0 0 0.12867 0 0)
(0 0 0 0.030961 0 0)
(0.009262 0 0 0.051055 0 0)
(0.001394 0 0 0.058714 0 0)
(0.046752 0 0 0.023902 0 0)
(0.042137 0 0 0.038083 0 0)
(0.049847 0 0 0.053167 0 0)
(0.02331 0 0 0.024088 0 0)
(0.050156 0 0 0.053167 0 0)
(0.041191 0 0 0.038083 0 0)
(0.010371 0 0 0.000132 0 0)
(0.010928 0 0 0.000132 0 0)
(0.005464 0 0 0.000132 0 0)
(0.010928 0 0 0.000132 0 0)
(0.008196 0 0 0.000132 0 0)
(0.039802 0 0 0.038083 0 0)
(0.051911 0 0 0.053167 0 0)
(0.022861 0 0 0.024088 0 0)
(0.051911 0 0 0.053167 0 0)
(0.039802 0 0 0.038083 0 0)
(0.04647 0 0 0.164875 0 0)
(0.06196 0 0 0.061783 0 0)
(0.024088 0 0 0.023967 0 0)
(0.06196 0 0 0.056902 0 0)
(0.046471 0 0 0.040625 0 0)
(0.067091 0 0 0.225966 0 0.192938)
(0.006793 0 0 0.049412 0 0.296508)
(0 0 0 0.07436 0 0.291427)
(0 0 0 0.087778 0 0.288468)
(0.040744 0 0 0.040438 0 0.299473)
(0.085079 0 0 0.039815 0 0.037056)
(0.05039 0 0 0.052107 0 0.034037)
(0.023329 0 0 0.026155 0 0.043829)
(0.050595 0 0 0.051615 0 0.034037)
(0.039934 0 0 0.039536 0 0.037217)
(0.03125 0 0 0.001922 0 0.007703)
(0.0114 0 0 0.001922 0 0.009148)
(0.007756 0 0 0.001922 0 0.010209)
(0.012771 0 0 0.001922 0 0.010266)
(0.008207 0 0 0.001922 0 0.00801)
(0.083301 0 0 0.041677 0 0.075346)
(0.050995 0 0 0.054051 0 0.075665)
(0.02285 0 0 0.027887 0 0.088354)
(0.050995 0 0 0.053519 0 0.075665)
(0.038976 0 0 0.041252 0 0.079457)
(0.096443 0 0 0.215675 0 0.099182)
(0.060567 0 0 0.068178 0 0.086859)
(0.023628 0 0 0.028779 0 0.075295)