/*--------------------------------*- C++ -*----------------------------------*\
  =========                 |
  \\      /  F ield         | OpenFOAM: The Open Source CFD Toolbox
   \\    /   O peration     | Website:  https://openfoam.org
    \\  /    A nd           | Version:  dev
     \\/     M anipulation  |
\*---------------------------------------------------------------------------*/
FoamFile
{
    format      ascii;
    class       volSymmTensorField;
    location    "0";
    object      B;
}
// * * * * * * * * * * * * * * * * * * * * * * * * * * * * * * * * * * * * * //

dimensions      [];

internalField   nonuniform List<symmTensor>
8025
(
(1.785697 0 0 1.785697 0 1.875)
(1.577364 0 0 1.577364 0 1.666667)
(1.622015 0 0 1.622015 0 1.666667)
(1.853867 0 0 0.713867 0 0.875)
(0.928867 0 0 0.607067 0 0.833334)
(1.577364 0 0 1.577364 0 1.666667)
(1.666667 0 0 1.666667 0 1.666667)
(1.622015 0 0 1.622015 0 1.666667)
(1.853867 0 0 0.318034 0 0.479167)
(0.616367 0 0 0.1904 0 0.416667)
(1.622015 0 0 1.622015 0 1.666667)
(1.622015 0 0 1.622015 0 1.666667)
(1.666667 0 0 1.666667 0 1.666667)
(1.666667 0 0 0.130834 0 0.083333)
(0.416667 0 0 0.05 0 0)
(0.653867 0 0 1.853867 0 0.833334)
(0.2372 0 0 1.853867 0 0.416667)
(0.05 0 0 1.666667 0 0)
(0.2247 0 0 0.308033 0 0.480792)
(0.616367 0 0 0.1904 0 0.416667)
(0.607067 0 0 0.928867 0 0.833334)
(0.1904 0 0 0.616367 0 0.416667)
(0.05 0 0 0.416667 0 0)
(0.1904 0 0 0.616367 0 0.416667)
(0.416667 0 0 0.416667 0 0)
(1.534507 0 0 1.542583 0 1.666644)
(1.534507 0 0 1.542588 0 1.666649)
(1.596523 0 0 1.604604 0 1.666649)
(1.918539 0 0 0.343271 0 0.127554)
(0.672603 0 0 0.194969 0 0.033172)
(1.542635 0 0 1.542635 0 1.666667)
(1.666667 0 0 1.666667 0 1.666667)
(1.604651 0 0 1.604651 0 1.666667)
(1.926667 0 0 0.343333 0 0.127577)
(0.26 0 0 0.195 0 0.033183)
(1.604651 0 0 1.604651 0 1.666667)
(1.604651 0 0 1.604651 0 1.666667)
(1.666667 0 0 1.666667 0 1.666667)
(1.666667 0 0 0.083333 0 0.083333)
(0 0 0 0 0 0)
(0.26 0 0 1.926667 0 0.044244)
(0.26 0 0 1.926667 0 0.044244)
(0 0 0 1.666667 0 0)
(0.26 0 0 0.343333 0 0.044244)
(0.26 0 0 0.195 0 0.033183)
(0.195 0 0 0.676604 0 0.033183)
(0.195 0 0 0.259953 0 0.033183)
(0 0 0 0 0 0)
(0.195 0 0 0.259938 0 0.033183)
(0 0 0 0 0 0)
(1.442634 0 0 1.541995 0 1.666644)
(1.442634 0 0 1.542059 0 1.666649)
(1.50465 0 0 1.604075 0 1.666649)
(1.826666 0 0 0.342565 0 0.127554)
(0.626666 0 0 0.194616 0 0.033172)
(1.542635 0 0 1.542635 0 1.666667)
(1.666667 0 0 1.666667 0 1.666667)
(1.604651 0 0 1.604651 0 1.666667)
(1.926667 0 0 0.343333 0 0.127577)
(0.26 0 0 0.195 0 0.033183)
(1.604651 0 0 1.604651 0 1.666667)
(1.604651 0 0 1.604651 0 1.666667)
(1.666667 0 0 1.666667 0 1.666667)
(1.666667 0 0 0.083333 0 0.083333)
(0 0 0 0 0 0)
(0.26 0 0 1.926667 0 0.044244)
(0.26 0 0 1.926667 0 0.044244)
(0 0 0 1.666667 0 0)
(0.26 0 0 0.343333 0 0.044244)
(0.26 0 0 0.195 0 0.033183)
(0.194999 0 0 0.675899 0 0.033183)
(0.194999 0 0 0.259424 0 0.033183)
(0 0 0 0 0 0)
(0.194999 0 0 0.259232 0 0.033183)
(0 0 0 0 0 0)
(1.403882 0 0 1.541772 0 1.666628)
(1.403882 0 0 1.541835 0 1.666638)
(1.465897 0 0 1.603852 0 1.666638)
(1.787913 0 0 0.342268 0 0.127539)
(0.60729 0 0 0.194467 0 0.033164)
(1.542635 0 0 1.542635 0 1.666667)
(1.666667 0 0 1.666667 0 1.666667)
(1.604651 0 0 1.604651 0 1.666667)
(1.926667 0 0 0.343333 0 0.127577)
(0.26 0 0 0.195 0 0.033183)
(1.604651 0 0 1.604651 0 1.666667)
(1.604651 0 0 1.604651 0 1.666667)
(1.666667 0 0 1.666667 0 1.666667)
(1.666667 0 0 0.083333 0 0.083333)
(0 0 0 0 0 0)
(0.26 0 0 1.926667 0 0.044244)
(0.26 0 0 1.926667 0 0.044244)
(0 0 0 1.666667 0 0)
(0.26 0 0 0.343333 0 0.044244)
(0.26 0 0 0.195 0 0.033183)
(0.194998 0 0 0.675601 0 0.033183)
(0.194998 0 0 0.2592 0 0.033183)
(0 0 0 0 0 0)
(0.194998 0 0 0.258934 0 0.033183)
(0 0 0 0 0 0)
(1.374007 0 0 1.541606 0 1.874977)
(1.374757 0 0 1.541668 0 1.666649)
(1.436773 0 0 1.603684 0 1.666649)
(1.751528 0 0 0.360022 0 0.874954)
(0.592467 0 0 0.215029 0 0.83331)
(1.542635 0 0 1.542635 0 1.666667)
(1.666667 0 0 1.666667 0 1.666667)
(1.604651 0 0 1.604651 0 1.666667)
(1.920906 0 0 0.361323 0 0.479167)
(0.26049 0 0 0.21568 0 0.416667)
(1.604651 0 0 1.604651 0 1.666667)
(1.604651 0 0 1.604651 0 1.666667)
(1.666667 0 0 1.666667 0 1.666667)
(1.666667 0 0 0.107083 0 0.083333)
(0 0 0 0.025 0 0)
(0.27924 0 0 1.920906 0 0.833334)
(0.27924 0 0 1.920906 0 0.416667)
(0.025 0 0 1.666667 0 0)
(0.27299 0 0 0.356323 0 0.480792)
(0.26049 0 0 0.21568 0 0.416667)
(0.215678 0 0 0.675855 0 0.833334)
(0.215678 0 0 0.259513 0 0.416667)
(0.024998 0 0 0 0 0)
(0.215678 0 0 0.259189 0 0.416667)
(0 0 0 0 0 0)
(0.928867 0 0 0.907067 0 1.041667)
(0.303867 0 0 0.653867 0 0.833334)
(0.210267 0 0 0.560267 0 0.833334)
(0.303867 0 0 0.653867 0 0.833334)
(0.928867 0 0 0.607067 0 0.833334)
(0.616367 0 0 0.294567 0 0.729167)
(0.1997 0 0 0.2372 0 0.416667)
(0.1061 0 0 0.1436 0 0.416667)
(0.1997 0 0 0.2372 0 0.416667)
(0.616367 0 0 0.1904 0 0.416667)
(0.416667 0 0 0.154167 0 0.416667)
(0 0 0 0.05 0 0)
(0 0 0 0.05 0 0)
(0 0 0 0.05 0 0)
(0.416667 0 0 0.05 0 0)
(0.616367 0 0 0.294567 0 0.729167)
(0.1997 0 0 0.2372 0 0.416667)
(0.1061 0 0 0.1436 0 0.416667)
(0.1997 0 0 0.2372 0 0.416667)
(0.616367 0 0 0.1904 0 0.416667)
(0.616367 0 0 0.953867 0 0.729167)
(0.189134 0 0 0.585467 0 0.416166)
(0.1997 0 0 0.628667 0 0.417167)
(0.1997 0 0 0.653867 0 0.416667)
(0.522767 0 0 0.560267 0 0.416667)
(0.668539 0 0 0.611604 0 0.137327)
(0.251872 0 0 0.259953 0 0.044227)
(0.121872 0 0 0.129953 0 0.022105)
(0.251872 0 0 0.259938 0 0.044221)
(0.672603 0 0 0.194969 0 0.033172)
(0.26 0 0 0.195 0 0.033183)
(0.26 0 0 0.26 0 0.044244)
(0.13 0 0 0.13 0 0.022122)
(0.26 0 0 0.26 0 0.044244)
(0.26 0 0 0.195 0 0.033183)
(0 0 0 0 0 0)
(0 0 0 0 0 0)
(0 0 0 0 0 0)
(0 0 0 0 0 0)
(0 0 0 0 0 0)
(0.26 0 0 0.195 0 0.033183)
(0.26 0 0 0.26 0 0.044244)
(0.13 0 0 0.13 0 0.022122)
(0.26 0 0 0.26 0 0.044244)
(0.26 0 0 0.195 0 0.033183)
(0.26 0 0 0.676604 0 0.044244)
(0.245326 0 0 0.164953 0 0.026922)
(0.26 0 0 0.224953 0 0.039444)
(0.26 0 0 0.259938 0 0.044244)
(0.13 0 0 0.129969 0 0.022122)
(0.576666 0 0 0.610898 0 0.137327)
(0.159999 0 0 0.259424 0 0.044227)
(0.029999 0 0 0.129424 0 0.022105)
(0.159999 0 0 0.259232 0 0.044221)
(0.626666 0 0 0.194616 0 0.033172)
(0.26 0 0 0.195 0 0.033183)
(0.26 0 0 0.26 0 0.044244)
(0.13 0 0 0.13 0 0.022122)
(0.26 0 0 0.26 0 0.044244)
(0.26 0 0 0.195 0 0.033183)
(0 0 0 0 0 0)
(0 0 0 0 0 0)
(0 0 0 0 0 0)
(0 0 0 0 0 0)
(0 0 0 0 0 0)
(0.26 0 0 0.195 0 0.033183)
(0.26 0 0 0.26 0 0.044244)
(0.13 0 0 0.13 0 0.022122)
(0.26 0 0 0.26 0 0.044244)
(0.26 0 0 0.195 0 0.033183)
(0.259999 0 0 0.675899 0 0.044244)
(0.245325 0 0 0.164424 0 0.026922)
(0.259999 0 0 0.224424 0 0.039444)
(0.259999 0 0 0.259232 0 0.044244)
(0.129999 0 0 0.129616 0 0.022122)
(0.537913 0 0 0.610601 0 0.137311)
(0.121246 0 0 0.2592 0 0.044215)
(0 0 0 0.129201 0 0.022093)
(0.121246 0 0 0.258934 0 0.044206)
(0.60729 0 0 0.194467 0 0.033164)
(0.26 0 0 0.195 0 0.033183)
(0.26 0 0 0.26 0 0.044244)
(0.13 0 0 0.13 0 0.022122)
(0.26 0 0 0.26 0 0.044244)
(0.26 0 0 0.195 0 0.033183)
(0 0 0 0 0 0)
(0 0 0 0 0 0)
(0 0 0 0 0 0)
(0 0 0 0 0 0)
(0 0 0 0 0 0)
(0.26 0 0 0.195 0 0.033183)
(0.26 0 0 0.26 0 0.044244)
(0.13 0 0 0.13 0 0.022122)
(0.26 0 0 0.26 0 0.044244)
(0.26 0 0 0.195 0 0.033183)
(0.259998 0 0 0.675601 0 0.044244)
(0.245324 0 0 0.1642 0 0.026922)
(0.259998 0 0 0.224201 0 0.039444)
(0.259998 0 0 0.258934 0 0.044244)
(0.129999 0 0 0.129467 0 0.022122)
(0.507778 0 0 0.624801 0 1.041396)
(0.091112 0 0 0.278263 0 0.833299)
(0 0 0 0.151145 0 0.833299)
(0.091112 0 0 0.277939 0 0.833287)
(0.592467 0 0 0.215029 0 0.83331)
(0.26049 0 0 0.21568 0 0.72893)
(0.26049 0 0 0.27924 0 0.416667)
(0.13337 0 0 0.15212 0 0.416667)
(0.26049 0 0 0.27924 0 0.416667)
(0.26049 0 0 0.21568 0 0.416667)
(0 0 0 0.025 0 0.416667)
(0 0 0 0.025 0 0)
(0 0 0 0.025 0 0)
(0 0 0 0.025 0 0)
(0 0 0 0.025 0 0)
(0.26049 0 0 0.21568 0 0.72893)
(0.26049 0 0 0.27924 0 0.416667)
(0.13337 0 0 0.15212 0 0.416667)
(0.26049 0 0 0.27924 0 0.416667)
(0.26049 0 0 0.21568 0 0.416667)
(0.260487 0 0 0.732105 0 0.729167)
(0.245813 0 0 0.243787 0 0.416166)
(0.260487 0 0 0.302288 0 0.417167)
(0.260487 0 0 0.336272 0 0.416667)
(0.133369 0 0 0.209803 0 0.416667)
(0.928867 0 0 0.907067 0 1.041667)
(0.303867 0 0 0.653867 0 0.833334)
(0.210267 0 0 0.560267 0 0.833334)
(0.303867 0 0 0.653867 0 0.833334)
(0.958617 0 0 0.646117 0 0.9125)
(0.616367 0 0 0.294567 0 0.729167)
(0.1997 0 0 0.2372 0 0.416667)
(0.1061 0 0 0.1436 0 0.416667)
(0.01725 0 0 0.01725 0 0.079167)
(0.653867 0 0 0.1997 0 0.416667)
(0.416667 0 0 0.154167 0 0.416667)
(0 0 0 0.05 0 0)
(0 0 0 0.05 0 0)
(0.1436 0 0 0.11085 0 0.416667)
(0.560267 0 0 0.1061 0 0.416667)
(0.616367 0 0 0.294567 0 0.729167)
(0.22945 0 0 0.22945 0 0.495834)
(0.02975 0 0 0 0 0)
(0.2372 0 0 0.1997 0 0.416667)
(0.653867 0 0 0.1997 0 0.416667)
(0.522767 0 0 0.822767 0 0.416667)
(0.1904 0 0 0.616367 0 0.416667)
(0.05 0 0 0.416667 0 0)
(0.1904 0 0 0.616367 0 0.416667)
(0.607067 0 0 0.616367 0 0.416667)
(0.668539 0 0 0.611604 0 0.137327)
(0.251872 0 0 0.259953 0 0.044227)
(0.121872 0 0 0.129953 0 0.022105)
(0.251872 0 0 0.259938 0 0.044221)
(0.672603 0 0 0.259969 0 0.044233)
(0.26 0 0 0.195 0 0.033183)
(0.26 0 0 0.26 0 0.044244)
(0.13 0 0 0.13 0 0.022122)
(0 0 0 0 0 0)
(0.26 0 0 0.26 0 0.044244)
(0 0 0 0 0 0)
(0 0 0 0 0 0)
(0 0 0 0 0 0)
(0.13 0 0 0.13 0 0.022122)
(0.13 0 0 0.13 0 0.022122)
(0.26 0 0 0.195 0 0.033183)
(0.26 0 0 0.26 0 0.044244)
(0 0 0 0 0 0)
(0.26 0 0 0.26 0 0.044244)
(0.26 0 0 0.26 0 0.044244)
(0.13 0 0 0.546604 0 0.022122)
(0.195 0 0 0.259953 0 0.033183)
(0 0 0 0 0 0)
(0.195 0 0 0.259938 0 0.033183)
(0.195 0 0 0.259969 0 0.033183)
(0.576666 0 0 0.610898 0 0.137327)
(0.159999 0 0 0.259424 0 0.044227)
(0.029999 0 0 0.129424 0 0.022105)
(0.159999 0 0 0.259232 0 0.044221)
(0.626666 0 0 0.259616 0 0.044233)
(0.26 0 0 0.195 0 0.033183)
(0.26 0 0 0.26 0 0.044244)
(0.13 0 0 0.13 0 0.022122)
(0 0 0 0 0 0)
(0.26 0 0 0.26 0 0.044244)
(0 0 0 0 0 0)
(0 0 0 0 0 0)
(0 0 0 0 0 0)
(0.13 0 0 0.13 0 0.022122)
(0.13 0 0 0.13 0 0.022122)
(0.26 0 0 0.195 0 0.033183)
(0.26 0 0 0.26 0 0.044244)
(0 0 0 0 0 0)
(0.26 0 0 0.26 0 0.044244)
(0.26 0 0 0.26 0 0.044244)
(0.129999 0 0 0.545899 0 0.022122)
(0.194999 0 0 0.259424 0 0.033183)
(0 0 0 0 0 0)
(0.194999 0 0 0.259232 0 0.033183)
(0.195 0 0 0.259616 0 0.033183)
(0.537913 0 0 0.610601 0 0.137311)
(0.121246 0 0 0.2592 0 0.044215)
(0 0 0 0.129201 0 0.022093)
(0.121246 0 0 0.258934 0 0.044206)
(0.60729 0 0 0.259467 0 0.044225)
(0.26 0 0 0.195 0 0.033183)
(0.26 0 0 0.26 0 0.044244)
(0.13 0 0 0.13 0 0.022122)
(0 0 0 0 0 0)
(0.26 0 0 0.26 0 0.044244)
(0 0 0 0 0 0)
(0 0 0 0 0 0)
(0 0 0 0 0 0)
(0.13 0 0 0.13 0 0.022122)
(0.13 0 0 0.13 0 0.022122)
(0.26 0 0 0.195 0 0.033183)
(0.26 0 0 0.26 0 0.044244)
(0 0 0 0 0 0)
(0.26 0 0 0.26 0 0.044244)
(0.26 0 0 0.26 0 0.044244)
(0.129998 0 0 0.545601 0 0.022122)
(0.194998 0 0 0.2592 0 0.033183)
(0 0 0 0 0 0)
(0.194998 0 0 0.258934 0 0.033183)
(0.194999 0 0 0.259467 0 0.033183)
(0.507778 0 0 0.624801 0 1.041396)
(0.091112 0 0 0.278263 0 0.833299)
(0 0 0 0.151145 0 0.833299)
(0.091112 0 0 0.277939 0 0.833287)
(0.607342 0 0 0.274714 0 0.912477)
(0.26049 0 0 0.21568 0 0.72893)
(0.26049 0 0 0.27924 0 0.416667)
(0.13337 0 0 0.15212 0 0.416667)
(0.008625 0 0 0.008625 0 0.079167)
(0.27924 0 0 0.26049 0 0.416667)
(0 0 0 0.025 0 0.416667)
(0 0 0 0.025 0 0)
(0 0 0 0.025 0 0)
(0.15212 0 0 0.135745 0 0.416667)
(0.15212 0 0 0.13337 0 0.416667)
(0.26049 0 0 0.21568 0 0.72893)
(0.275365 0 0 0.275365 0 0.495834)
(0.014875 0 0 0 0 0)
(0.27924 0 0 0.26049 0 0.416667)
(0.27924 0 0 0.26049 0 0.416667)
(0.133368 0 0 0.542485 0 0.416667)
(0.215678 0 0 0.259513 0 0.416667)
(0.024998 0 0 0 0 0)
(0.215678 0 0 0.259189 0 0.416667)
(0.215679 0 0 0.259839 0 0.416667)
(0.907067 0 0 0.928867 0 1.041667)
(0.294567 0 0 0.616367 0 0.729167)
(0.154167 0 0 0.416667 0 0.416667)
(0.294567 0 0 0.616367 0 0.729167)
(0.953867 0 0 0.616367 0 0.729167)
(0.653867 0 0 0.303867 0 0.833334)
(0.2372 0 0 0.1997 0 0.416667)
(0.05 0 0 0 0 0)
(0.2372 0 0 0.1997 0 0.416667)
(0.585467 0 0 0.189134 0 0.416166)
(0.560267 0 0 0.210267 0 0.833334)
(0.1436 0 0 0.1061 0 0.416667)
(0.05 0 0 0 0 0)
(0.1436 0 0 0.1061 0 0.416667)
(0.628667 0 0 0.1997 0 0.417167)
(0.653867 0 0 0.303867 0 0.833334)
(0.2372 0 0 0.1997 0 0.416667)
(0.05 0 0 0 0 0)
(0.2372 0 0 0.1997 0 0.416667)
(0.653867 0 0 0.1997 0 0.416667)
(0.607067 0 0 0.928867 0 0.833334)
(0.1904 0 0 0.616367 0 0.416667)
(0.05 0 0 0.416667 0 0)
(0.1904 0 0 0.616367 0 0.416667)
(0.560267 0 0 0.522767 0 0.416667)
(0.603539 0 0 0.676604 0 0.137327)
(0.186872 0 0 0.259953 0 0.033166)
(0 0 0 0 0 0)
(0.186872 0 0 0.259938 0 0.03316)
(0.672603 0 0 0.259969 0 0.044233)
(0.26 0 0 0.26 0 0.044244)
(0.26 0 0 0.26 0 0.044244)
(0 0 0 0 0 0)
(0.26 0 0 0.26 0 0.044244)
(0.165 0 0 0.245326 0 0.026922)
(0.13 0 0 0.13 0 0.022122)
(0.13 0 0 0.13 0 0.022122)
(0 0 0 0 0 0)
(0.13 0 0 0.13 0 0.022122)
(0.225 0 0 0.26 0 0.039444)
(0.26 0 0 0.26 0 0.044244)
(0.26 0 0 0.26 0 0.044244)
(0 0 0 0 0 0)
(0.26 0 0 0.26 0 0.044244)
(0.26 0 0 0.26 0 0.044244)
(0.195 0 0 0.676604 0 0.033183)
(0.195 0 0 0.259953 0 0.033183)
(0 0 0 0 0 0)
(0.195 0 0 0.259938 0 0.033183)
(0.13 0 0 0.129969 0 0.022122)
(0.511665 0 0 0.675899 0 0.137327)
(0.094999 0 0 0.259424 0 0.033166)
(0 0 0 0 0 0)
(0.094999 0 0 0.259232 0 0.03316)
(0.626666 0 0 0.259616 0 0.044233)
(0.26 0 0 0.26 0 0.044244)
(0.26 0 0 0.26 0 0.044244)
(0 0 0 0 0 0)
(0.26 0 0 0.26 0 0.044244)
(0.165 0 0 0.245326 0 0.026922)
(0.13 0 0 0.13 0 0.022122)
(0.13 0 0 0.13 0 0.022122)
(0 0 0 0 0 0)
(0.13 0 0 0.13 0 0.022122)
(0.225 0 0 0.26 0 0.039444)
(0.26 0 0 0.26 0 0.044244)
(0.26 0 0 0.26 0 0.044244)
(0 0 0 0 0 0)
(0.26 0 0 0.26 0 0.044244)
(0.26 0 0 0.26 0 0.044244)
(0.194999 0 0 0.675899 0 0.033183)
(0.194999 0 0 0.259424 0 0.033183)
(0 0 0 0 0 0)
(0.194999 0 0 0.259232 0 0.033183)
(0.129999 0 0 0.129616 0 0.022122)
(0.472913 0 0 0.675601 0 0.137311)
(0.056246 0 0 0.2592 0 0.033154)
(0 0 0 0 0 0)
(0.056246 0 0 0.258934 0 0.033145)
(0.60729 0 0 0.259467 0 0.044225)
(0.26 0 0 0.26 0 0.044244)
(0.26 0 0 0.26 0 0.044244)
(0 0 0 0 0 0)
(0.26 0 0 0.26 0 0.044244)
(0.165 0 0 0.245326 0 0.026922)
(0.13 0 0 0.13 0 0.022122)
(0.13 0 0 0.13 0 0.022122)
(0 0 0 0 0 0)
(0.13 0 0 0.13 0 0.022122)
(0.225 0 0 0.26 0 0.039444)
(0.26 0 0 0.26 0 0.044244)
(0.26 0 0 0.26 0 0.044244)
(0 0 0 0 0 0)
(0.26 0 0 0.26 0 0.044244)
(0.26 0 0 0.26 0 0.044244)
(0.194998 0 0 0.675601 0 0.033183)
(0.194998 0 0 0.2592 0 0.033183)
(0 0 0 0 0 0)
(0.194998 0 0 0.258934 0 0.033183)
(0.129999 0 0 0.129467 0 0.022122)
(0.456718 0 0 0.675855 0 1.041384)
(0.046302 0 0 0.259513 0 0.728896)
(0 0 0 0 0 0.416632)
(0.046301 0 0 0.259189 0 0.728884)
(0.648717 0 0 0.259839 0 0.729144)
(0.27924 0 0 0.26049 0 0.833334)
(0.27924 0 0 0.26049 0 0.416667)
(0.025 0 0 0 0 0)
(0.27924 0 0 0.26049 0 0.416667)
(0.244763 0 0 0.245815 0 0.416166)
(0.15212 0 0 0.13337 0 0.833334)
(0.15212 0 0 0.13337 0 0.416667)
(0.025 0 0 0 0 0)
(0.15212 0 0 0.13337 0 0.416667)
(0.303263 0 0 0.26049 0 0.417167)
(0.27924 0 0 0.26049 0 0.833334)
(0.27924 0 0 0.26049 0 0.416667)
(0.025 0 0 0 0 0)
(0.27924 0 0 0.26049 0 0.416667)
(0.337573 0 0 0.26049 0 0.416667)
(0.215678 0 0 0.675855 0 0.833334)
(0.215678 0 0 0.259513 0 0.416667)
(0.024998 0 0 0 0 0)
(0.215677 0 0 0.259189 0 0.416667)
(0.210452 0 0 0.132719 0 0.416667)
(0.766667 0 0 0.766667 0 0.729167)
(0.104167 0 0 0.466667 0 0.416667)
(0.104167 0 0 0.466667 0 0.416667)
(0.104167 0 0 0.466667 0 0.416667)
(0.729167 0 0 0.466667 0 0.416667)
(0.466667 0 0 0.104167 0 0.416667)
(0 0 0 0 0 0)
(0 0 0 0 0 0)
(0 0 0 0 0 0)
(0.416667 0 0 0 0 0)
(0.466667 0 0 0.104167 0 0.416667)
(0 0 0 0 0 0)
(0 0 0 0 0 0)
(0 0 0 0 0 0)
(0.416667 0 0 0 0 0)
(0.466667 0 0 0.104167 0 0.416667)
(0 0 0 0 0 0)
(0 0 0 0 0 0)
(0 0 0 0 0 0)
(0.416667 0 0 0 0 0)
(0.466667 0 0 0.729167 0 0.416667)
(0 0 0 0.416667 0 0)
(0 0 0 0.416667 0 0)
(0 0 0 0.416667 0 0)
(0.416667 0 0 0.416667 0 0)
(0.408539 0 0 0.416604 0 0.104144)
(0 0 0 0 0 0)
(0 0 0 0 0 0)
(0 0 0 0 0 0)
(0.412603 0 0 0 0 0)
(0 0 0 0 0 0)
(0 0 0 0 0 0)
(0 0 0 0 0 0)
(0 0 0 0 0 0)
(0 0 0 0 0 0)
(0 0 0 0 0 0)
(0 0 0 0 0 0)
(0 0 0 0 0 0)
(0 0 0 0 0 0)
(0 0 0 0 0 0)
(0 0 0 0 0 0)
(0 0 0 0 0 0)
(0 0 0 0 0 0)
(0 0 0 0 0 0)
(0 0 0 0 0 0)
(0 0 0 0.416604 0 0)
(0 0 0 0 0 0)
(0 0 0 0 0 0)
(0 0 0 0 0 0)
(0 0 0 0 0 0)
(0.316666 0 0 0.415899 0 0.104144)
(0 0 0 0 0 0)
(0 0 0 0 0 0)
(0 0 0 0 0 0)
(0.366666 0 0 0 0 0)
(0 0 0 0 0 0)
(0 0 0 0 0 0)
(0 0 0 0 0 0)
(0 0 0 0 0 0)
(0 0 0 0 0 0)
(0 0 0 0 0 0)
(0 0 0 0 0 0)
(0 0 0 0 0 0)
(0 0 0 0 0 0)
(0 0 0 0 0 0)
(0 0 0 0 0 0)
(0 0 0 0 0 0)
(0 0 0 0 0 0)
(0 0 0 0 0 0)
(0 0 0 0 0 0)
(0 0 0 0.415899 0 0)
(0 0 0 0 0 0)
(0 0 0 0 0 0)
(0 0 0 0 0 0)
(0 0 0 0 0 0)
(0.277913 0 0 0.415601 0 0.104128)
(0 0 0 0 0 0)
(0 0 0 0 0 0)
(0 0 0 0 0 0)
(0.34729 0 0 0 0 0)
(0 0 0 0 0 0)
(0 0 0 0 0 0)
(0 0 0 0 0 0)
(0 0 0 0 0 0)
(0 0 0 0 0 0)
(0 0 0 0 0 0)
(0 0 0 0 0 0)
(0 0 0 0 0 0)
(0 0 0 0 0 0)
(0 0 0 0 0 0)
(0 0 0 0 0 0)
(0 0 0 0 0 0)
(0 0 0 0 0 0)
(0 0 0 0 0 0)
(0 0 0 0 0 0)
(0 0 0 0.415601 0 0)
(0 0 0 0 0 0)
(0 0 0 0 0 0)
(0 0 0 0 0 0)
(0 0 0 0 0 0)
(0.309789 0 0 0.477885 0 1.874966)
(0 0 0 0.082357 0 1.666632)
(0 0 0 0.082358 0 1.666632)
(0 0 0 0.082032 0 1.666621)
(0.394478 0 0 0.082683 0 1.666644)
(0.083333 0 0 0.083333 0 1.666667)
(0.083333 0 0 0.083333 0 1.666667)
(0.083333 0 0 0.083333 0 1.666667)
(0.083333 0 0 0.083333 0 1.666667)
(0.083333 0 0 0.083333 0 1.666667)
(0.083333 0 0 0.083333 0 1.666667)
(0.083333 0 0 0.083333 0 1.666667)
(0.083333 0 0 0.083333 0 1.666667)
(0.083333 0 0 0.083333 0 1.666667)
(0.083333 0 0 0.083333 0 1.666667)
(0.083333 0 0 0.083333 0 1.666667)
(0.083333 0 0 0.083333 0 1.666667)
(0.083333 0 0 0.083333 0 1.666667)
(0.083333 0 0 0.083333 0 1.666667)
(0.083333 0 0 0.083333 0 1.666667)
(0.083331 0 0 0.477866 0 1.666667)
(0.083331 0 0 0.082357 0 1.666667)
(0.083331 0 0 0.082358 0 1.666667)
(0.083331 0 0 0.082032 0 1.666667)
(0.083332 0 0 0.082683 0 1.666667)
(0.953867 0 0 0.928867 0 1.041667)
(0.294567 0 0 0.616367 0 0.729167)
(0.154167 0 0 0.416667 0 0.416667)
(0.294567 0 0 0.616367 0 0.729167)
(0.907067 0 0 0.616367 0 0.729167)
(0.585467 0 0 0.293301 0 0.832833)
(0.2372 0 0 0.1997 0 0.416667)
(0.05 0 0 0 0 0)
(0.2372 0 0 0.1997 0 0.416667)
(0.653867 0 0 0.1997 0 0.416667)
(0.628667 0 0 0.303867 0 0.833834)
(0.1436 0 0 0.1061 0 0.416667)
(0.05 0 0 0 0 0)
(0.1436 0 0 0.1061 0 0.416667)
(0.560267 0 0 0.1061 0 0.416667)
(0.653867 0 0 0.303867 0 0.833333)
(0.2372 0 0 0.1997 0 0.416667)
(0.05 0 0 0 0 0)
(0.2372 0 0 0.1997 0 0.416667)
(0.653867 0 0 0.1997 0 0.416667)
(0.560267 0 0 0.835267 0 0.833333)
(0.1904 0 0 0.616367 0 0.416667)
(0.05 0 0 0.416667 0 0)
(0.1904 0 0 0.616367 0 0.416667)
(0.607067 0 0 0.616367 0 0.416667)
(0.668539 0 0 0.676604 0 0.148388)
(0.186872 0 0 0.259953 0 0.033166)
(0 0 0 0 0 0)
(0.186872 0 0 0.259938 0 0.03316)
(0.607603 0 0 0.259969 0 0.033172)
(0.165 0 0 0.245326 0 0.026922)
(0.26 0 0 0.26 0 0.044244)
(0 0 0 0 0 0)
(0.26 0 0 0.26 0 0.044244)
(0.26 0 0 0.26 0 0.044244)
(0.225 0 0 0.26 0 0.039444)
(0.13 0 0 0.13 0 0.022122)
(0 0 0 0 0 0)
(0.13 0 0 0.13 0 0.022122)
(0.13 0 0 0.13 0 0.022122)
(0.26 0 0 0.26 0 0.044244)
(0.26 0 0 0.26 0 0.044244)
(0 0 0 0 0 0)
(0.26 0 0 0.26 0 0.044244)
(0.26 0 0 0.26 0 0.044244)
(0.13 0 0 0.546604 0 0.022122)
(0.195 0 0 0.259953 0 0.033183)
(0 0 0 0 0 0)
(0.195 0 0 0.259938 0 0.033183)
(0.195 0 0 0.259969 0 0.033183)
(0.576666 0 0 0.675899 0 0.148388)
(0.094999 0 0 0.259424 0 0.033166)
(0 0 0 0 0 0)
(0.094999 0 0 0.259232 0 0.03316)
(0.561666 0 0 0.259616 0 0.033172)
(0.165 0 0 0.245326 0 0.026922)
(0.26 0 0 0.26 0 0.044244)
(0 0 0 0 0 0)
(0.26 0 0 0.26 0 0.044244)
(0.26 0 0 0.26 0 0.044244)
(0.225 0 0 0.26 0 0.039444)
(0.13 0 0 0.13 0 0.022122)
(0 0 0 0 0 0)
(0.13 0 0 0.13 0 0.022122)
(0.13 0 0 0.13 0 0.022122)
(0.26 0 0 0.26 0 0.044244)
(0.26 0 0 0.26 0 0.044244)
(0 0 0 0 0 0)
(0.26 0 0 0.26 0 0.044244)
(0.26 0 0 0.26 0 0.044244)
(0.129999 0 0 0.545899 0 0.022122)
(0.194999 0 0 0.259424 0 0.033183)
(0 0 0 0 0 0)
(0.194999 0 0 0.259232 0 0.033183)
(0.195 0 0 0.259616 0 0.033183)
(0.537913 0 0 0.675601 0 0.148372)
(0.056246 0 0 0.2592 0 0.033154)
(0 0 0 0 0 0)
(0.056246 0 0 0.258934 0 0.033145)
(0.54229 0 0 0.259467 0 0.033164)
(0.165 0 0 0.245326 0 0.026922)
(0.26 0 0 0.26 0 0.044244)
(0 0 0 0 0 0)
(0.26 0 0 0.26 0 0.044244)
(0.26 0 0 0.26 0 0.044244)
(0.225 0 0 0.26 0 0.039444)
(0.13 0 0 0.13 0 0.022122)
(0 0 0 0 0 0)
(0.13 0 0 0.13 0 0.022122)
(0.13 0 0 0.13 0 0.022122)
(0.26 0 0 0.26 0 0.044244)
(0.26 0 0 0.26 0 0.044244)
(0 0 0 0 0 0)
(0.26 0 0 0.26 0 0.044244)
(0.26 0 0 0.26 0 0.044244)
(0.129998 0 0 0.545601 0 0.022122)
(0.194998 0 0 0.2592 0 0.033183)
(0 0 0 0 0 0)
(0.194998 0 0 0.258934 0 0.033183)
(0.194999 0 0 0.259467 0 0.033183)
(0.582778 0 0 0.675855 0 1.041621)
(0.046301 0 0 0.259513 0 0.728896)
(0 0 0 0 0 0.416632)
(0.046302 0 0 0.259189 0 0.728884)
(0.541407 0 0 0.259839 0 0.728907)
(0.269763 0 0 0.245815 0 0.832833)
(0.27924 0 0 0.26049 0 0.416667)
(0.025 0 0 0 0 0)
(0.27924 0 0 0.26049 0 0.416667)
(0.27924 0 0 0.26049 0 0.416667)
(0.328263 0 0 0.26049 0 0.833834)
(0.15212 0 0 0.13337 0 0.416667)
(0.025 0 0 0 0 0)
(0.15212 0 0 0.13337 0 0.416667)
(0.15212 0 0 0.13337 0 0.416667)
(0.362573 0 0 0.26049 0 0.833333)
(0.27924 0 0 0.26049 0 0.416667)
(0.025 0 0 0 0 0)
(0.27924 0 0 0.26049 0 0.416667)
(0.27924 0 0 0.26049 0 0.416667)
(0.235451 0 0 0.548735 0 0.833333)
(0.215677 0 0 0.259513 0 0.416667)
(0.024998 0 0 0 0 0)
(0.215678 0 0 0.259189 0 0.416667)
(0.215679 0 0 0.259839 0 0.416667)
(0.907067 0 0 0.928867 0 1.041667)
(0.294567 0 0 0.616367 0 0.729167)
(0.154167 0 0 0.416667 0 0.416667)
(0.294567 0 0 0.616367 0 0.729167)
(0.822767 0 0 0.522767 0 0.416667)
(0.653867 0 0 0.303867 0 0.833334)
(0.2372 0 0 0.1997 0 0.416667)
(0.05 0 0 0 0 0)
(0.22945 0 0 0.22945 0 0.495834)
(0.616367 0 0 0.1904 0 0.416667)
(0.560267 0 0 0.210267 0 0.833334)
(0.1436 0 0 0.1061 0 0.416667)
(0.05 0 0 0 0 0)
(0 0 0 0.02975 0 0)
(0.416667 0 0 0.05 0 0)
(0.653867 0 0 0.303867 0 0.833334)
(0.01725 0 0 0.01725 0 0.079167)
(0.11085 0 0 0.1436 0 0.416667)
(0.1997 0 0 0.2372 0 0.416667)
(0.616367 0 0 0.1904 0 0.416667)
(0.646117 0 0 0.958617 0 0.9125)
(0.1997 0 0 0.653867 0 0.416667)
(0.1061 0 0 0.560267 0 0.416667)
(0.1997 0 0 0.653867 0 0.416667)
(0.616367 0 0 0.607067 0 0.416667)
(0.603539 0 0 0.676604 0 0.137327)
(0.186872 0 0 0.259953 0 0.033166)
(0 0 0 0 0 0)
(0.186872 0 0 0.259938 0 0.03316)
(0.542603 0 0 0.129969 0 0.022111)
(0.26 0 0 0.26 0 0.044244)
(0.26 0 0 0.26 0 0.044244)
(0 0 0 0 0 0)
(0.26 0 0 0.26 0 0.044244)
(0.26 0 0 0.195 0 0.033183)
(0.13 0 0 0.13 0 0.022122)
(0.13 0 0 0.13 0 0.022122)
(0 0 0 0 0 0)
(0 0 0 0 0 0)
(0 0 0 0 0 0)
(0.26 0 0 0.26 0 0.044244)
(0 0 0 0 0 0)
(0.13 0 0 0.13 0 0.022122)
(0.26 0 0 0.26 0 0.044244)
(0.26 0 0 0.195 0 0.033183)
(0.26 0 0 0.676635 0 0.044244)
(0.26 0 0 0.259977 0 0.044244)
(0.13 0 0 0.129977 0 0.022122)
(0.26 0 0 0.259969 0 0.044244)
(0.26 0 0 0.194985 0 0.033183)
(0.511665 0 0 0.675899 0 0.137327)
(0.094999 0 0 0.259424 0 0.033166)
(0 0 0 0 0 0)
(0.094999 0 0 0.259232 0 0.03316)
(0.496666 0 0 0.129616 0 0.022111)
(0.26 0 0 0.26 0 0.044244)
(0.26 0 0 0.26 0 0.044244)
(0 0 0 0 0 0)
(0.26 0 0 0.26 0 0.044244)
(0.26 0 0 0.195 0 0.033183)
(0.13 0 0 0.13 0 0.022122)
(0.13 0 0 0.13 0 0.022122)
(0 0 0 0 0 0)
(0 0 0 0 0 0)
(0 0 0 0 0 0)
(0.26 0 0 0.26 0 0.044244)
(0 0 0 0 0 0)
(0.13 0 0 0.13 0 0.022122)
(0.26 0 0 0.26 0 0.044244)
(0.26 0 0 0.195 0 0.033183)
(0.259999 0 0 0.676283 0 0.044244)
(0.259999 0 0 0.259712 0 0.044244)
(0.129999 0 0 0.129712 0 0.022122)
(0.259999 0 0 0.259616 0 0.044244)
(0.259999 0 0 0.194808 0 0.033183)
(0.472913 0 0 0.675601 0 0.137311)
(0.056246 0 0 0.2592 0 0.033154)
(0 0 0 0 0 0)
(0.056246 0 0 0.258934 0 0.033145)
(0.47729 0 0 0.129467 0 0.022103)
(0.26 0 0 0.26 0 0.044244)
(0.26 0 0 0.26 0 0.044244)
(0 0 0 0 0 0)
(0.26 0 0 0.26 0 0.044244)
(0.26 0 0 0.195 0 0.033183)
(0.13 0 0 0.13 0 0.022122)
(0.13 0 0 0.13 0 0.022122)
(0 0 0 0 0 0)
(0 0 0 0 0 0)
(0 0 0 0 0 0)
(0.26 0 0 0.26 0 0.044244)
(0 0 0 0 0 0)
(0.13 0 0 0.13 0 0.022122)
(0.26 0 0 0.26 0 0.044244)
(0.26 0 0 0.195 0 0.033183)
(0.259998 0 0 0.676134 0 0.044244)
(0.259998 0 0 0.2596 0 0.044244)
(0.129998 0 0 0.129601 0 0.022122)
(0.259998 0 0 0.259467 0 0.044244)
(0.259999 0 0 0.194734 0 0.033183)
(0.456718 0 0 0.675855 0 1.041384)
(0.046301 0 0 0.259513 0 0.728896)
(0 0 0 0 0 0.416632)
(0.046301 0 0 0.259189 0 0.728884)
(0.459097 0 0 0.132719 0 0.416644)
(0.27924 0 0 0.26049 0 0.833334)
(0.27924 0 0 0.26049 0 0.416667)
(0.025 0 0 0 0 0)
(0.275365 0 0 0.275365 0 0.495834)
(0.26049 0 0 0.21568 0 0.416667)
(0.15212 0 0 0.13337 0 0.833334)
(0.15212 0 0 0.13337 0 0.416667)
(0.025 0 0 0 0 0)
(0 0 0 0.014875 0 0)
(0 0 0 0.025 0 0)
(0.27924 0 0 0.26049 0 0.833334)
(0.008625 0 0 0.008625 0 0.079167)
(0.135745 0 0 0.15212 0 0.416667)
(0.26049 0 0 0.27924 0 0.416667)
(0.26049 0 0 0.21568 0 0.416667)
(0.275362 0 0 0.691381 0 0.9125)
(0.260487 0 0 0.278751 0 0.416667)
(0.133367 0 0 0.151633 0 0.416667)
(0.260487 0 0 0.278589 0 0.416667)
(0.260488 0 0 0.215355 0 0.416667)
(0.928867 0 0 0.953867 0 1.041667)
(0.293301 0 0 0.585467 0 0.832833)
(0.303867 0 0 0.628667 0 0.833834)
(0.303867 0 0 0.653867 0 0.833333)
(0.835267 0 0 0.560267 0 0.833333)
(0.616367 0 0 0.294567 0 0.729167)
(0.1997 0 0 0.2372 0 0.416667)
(0.1061 0 0 0.1436 0 0.416667)
(0.1997 0 0 0.2372 0 0.416667)
(0.616367 0 0 0.1904 0 0.416667)
(0.416667 0 0 0.154167 0 0.416667)
(0 0 0 0.05 0 0)
(0 0 0 0.05 0 0)
(0 0 0 0.05 0 0)
(0.416667 0 0 0.05 0 0)
(0.616367 0 0 0.294567 0 0.729167)
(0.1997 0 0 0.2372 0 0.416667)
(0.1061 0 0 0.1436 0 0.416667)
(0.1997 0 0 0.2372 0 0.416667)
(0.616367 0 0 0.1904 0 0.416667)
(0.616367 0 0 0.907067 0 0.729167)
(0.1997 0 0 0.653867 0 0.416667)
(0.1061 0 0 0.560267 0 0.416667)
(0.1997 0 0 0.653867 0 0.416667)
(0.616367 0 0 0.607067 0 0.416667)
(0.668539 0 0 0.676604 0 0.148388)
(0.237198 0 0 0.164953 0 0.026905)
(0.251872 0 0 0.224953 0 0.039427)
(0.251872 0 0 0.259938 0 0.044221)
(0.542603 0 0 0.129969 0 0.022111)
(0.26 0 0 0.195 0 0.033183)
(0.26 0 0 0.26 0 0.044244)
(0.13 0 0 0.13 0 0.022122)
(0.26 0 0 0.26 0 0.044244)
(0.26 0 0 0.195 0 0.033183)
(0 0 0 0 0 0)
(0 0 0 0 0 0)
(0 0 0 0 0 0)
(0 0 0 0 0 0)
(0 0 0 0 0 0)
(0.26 0 0 0.195 0 0.033183)
(0.26 0 0 0.26 0 0.044244)
(0.13 0 0 0.13 0 0.022122)
(0.26 0 0 0.26 0 0.044244)
(0.26 0 0 0.195 0 0.033183)
(0.26 0 0 0.611635 0 0.033183)
(0.26 0 0 0.259977 0 0.044244)
(0.13 0 0 0.129977 0 0.022122)
(0.26 0 0 0.259969 0 0.044244)
(0.26 0 0 0.194985 0 0.033183)
(0.576665 0 0 0.675899 0 0.148388)
(0.145324 0 0 0.164424 0 0.026905)
(0.159999 0 0 0.224424 0 0.039427)
(0.159999 0 0 0.259232 0 0.044221)
(0.496666 0 0 0.129616 0 0.022111)
(0.26 0 0 0.195 0 0.033183)
(0.26 0 0 0.26 0 0.044244)
(0.13 0 0 0.13 0 0.022122)
(0.26 0 0 0.26 0 0.044244)
(0.26 0 0 0.195 0 0.033183)
(0 0 0 0 0 0)
(0 0 0 0 0 0)
(0 0 0 0 0 0)
(0 0 0 0 0 0)
(0 0 0 0 0 0)
(0.26 0 0 0.195 0 0.033183)
(0.26 0 0 0.26 0 0.044244)
(0.13 0 0 0.13 0 0.022122)
(0.26 0 0 0.26 0 0.044244)
(0.26 0 0 0.195 0 0.033183)
(0.259999 0 0 0.611283 0 0.033183)
(0.259999 0 0 0.259712 0 0.044244)
(0.129999 0 0 0.129712 0 0.022122)
(0.259999 0 0 0.259616 0 0.044244)
(0.259999 0 0 0.194808 0 0.033183)
(0.537913 0 0 0.675601 0 0.148372)
(0.106572 0 0 0.1642 0 0.026893)
(0.121246 0 0 0.224201 0 0.039415)
(0.121246 0 0 0.258934 0 0.044206)
(0.47729 0 0 0.129467 0 0.022103)
(0.26 0 0 0.195 0 0.033183)
(0.26 0 0 0.26 0 0.044244)
(0.13 0 0 0.13 0 0.022122)
(0.26 0 0 0.26 0 0.044244)
(0.26 0 0 0.195 0 0.033183)
(0 0 0 0 0 0)
(0 0 0 0 0 0)
(0 0 0 0 0 0)
(0 0 0 0 0 0)
(0 0 0 0 0 0)
(0.26 0 0 0.195 0 0.033183)
(0.26 0 0 0.26 0 0.044244)
(0.13 0 0 0.13 0 0.022122)
(0.26 0 0 0.26 0 0.044244)
(0.26 0 0 0.195 0 0.033183)
(0.259998 0 0 0.611134 0 0.033183)
(0.259998 0 0 0.2596 0 0.044244)
(0.129998 0 0 0.129601 0 0.022122)
(0.259998 0 0 0.259467 0 0.044244)
(0.259999 0 0 0.194734 0 0.033183)
(0.507778 0 0 0.750861 0 1.041632)
(0.076437 0 0 0.268787 0 0.832798)
(0.091111 0 0 0.327288 0 0.8338)
(0.091111 0 0 0.361272 0 0.833287)
(0.465347 0 0 0.234803 0 0.83331)
(0.26049 0 0 0.21568 0 0.72893)
(0.26049 0 0 0.27924 0 0.416667)
(0.13337 0 0 0.15212 0 0.416667)
(0.26049 0 0 0.27924 0 0.416667)
(0.26049 0 0 0.21568 0 0.416667)
(0 0 0 0.025 0 0.416667)
(0 0 0 0.025 0 0)
(0 0 0 0.025 0 0)
(0 0 0 0.025 0 0)
(0 0 0 0.025 0 0)
(0.26049 0 0 0.21568 0 0.72893)
(0.26049 0 0 0.27924 0 0.416667)
(0.13337 0 0 0.15212 0 0.416667)
(0.26049 0 0 0.27924 0 0.416667)
(0.26049 0 0 0.21568 0 0.416667)
(0.260487 0 0 0.625446 0 0.72893)
(0.260487 0 0 0.278751 0 0.416667)
(0.133367 0 0 0.151633 0 0.416667)
(0.260487 0 0 0.278589 0 0.416667)
(0.260488 0 0 0.215355 0 0.416667)
(0.928867 0 0 0.928867 0 0.729167)
(0.294567 0 0 0.616367 0 0.729167)
(0.154167 0 0 0.416667 0 0.416667)
(0.294567 0 0 0.616367 0 0.729167)
(0.907067 0 0 0.616367 0 0.729167)
(0.616367 0 0 0.294567 0 0.729167)
(0.22945 0 0 0.22945 0 0.495833)
(0.02975 0 0 1.666667 0 0)
(0.2372 0 0 1.853867 0 0.416667)
(0.653867 0 0 1.853867 0 0.416667)
(0.416667 0 0 0.154167 0 0.416667)
(1.666667 0 0 0.02975 0 0)
(1.666667 0 0 1.666667 0 1.666667)
(1.622015 0 0 1.622015 0 1.666667)
(1.622015 0 0 1.622015 0 1.666667)
(0.616367 0 0 0.294567 0 0.729167)
(1.853867 0 0 0.2372 0 0.416667)
(1.622015 0 0 1.622015 0 1.666667)
(1.666667 0 0 1.666667 0 1.666667)
(1.577364 0 0 1.577364 0 1.666667)
(0.616367 0 0 0.907067 0 0.729167)
(1.853867 0 0 0.653867 0 0.416667)
(1.622015 0 0 1.622015 0 1.666667)
(1.577364 0 0 1.577364 0 1.666667)
(1.577364 0 0 1.577364 0 1.666667)
(0.668539 0 0 0.676604 0 0.148388)
(0.186872 0 0 0.259953 0 0.033166)
(0 0 0 0 0 0)
(0.186872 0 0 0.259938 0 0.03316)
(0.607603 0 0 0.259969 0 0.033172)
(0.26 0 0 0.195 0 0.033183)
(0.26 0 0 0.26 0 0.044244)
(0 0 0 1.666667 0 0)
(0.26 0 0 1.926667 0 0.044244)
(0.26 0 0 1.926667 0 0.044244)
(0 0 0 0 0 0)
(1.666667 0 0 0 0 0)
(1.666667 0 0 1.666667 0 1.666667)
(1.604651 0 0 1.604651 0 1.666667)
(1.604651 0 0 1.604651 0 1.666667)
(0.26 0 0 0.195 0 0.033183)
(1.926667 0 0 0.26 0 0.044244)
(1.604651 0 0 1.604651 0 1.666667)