/*--------------------------------*- C++ -*----------------------------------*\
  =========                 |
  \\      /  F ield         | OpenFOAM: The Open Source CFD Toolbox
   \\    /   O peration     | Website:  https://openfoam.org
    \\  /    A nd           | Version:  dev
     \\/     M anipulation  |
\*---------------------------------------------------------------------------*/
FoamFile
{
    format      ascii;
    class       volSymmTensorField;
    location    "0";
    object      nsv;
}
// * * * * * * * * * * * * * * * * * * * * * * * * * * * * * * * * * * * * * //

dimensions      [];

internalField   nonuniform List<symmTensor>
8025
(
(0.634791 0 0 0.634791 0 0.03)
(0.134791 0 0 -0.115209 0 -0.72)
(0.192395 0 0 -0.057605 0 -0.36)
(0.732081 0 0 -0.230419 0 0.83)
(0.827186 0 0 0.014686 0 0.8375)
(-0.115209 0 0 0.134791 0 -0.72)
(0 0 0 0 0 0)
(-0.057605 0 0 -0.057605 0 -0.36)
(0.244581 0 0 -0.105419 0 0.7125)
(0.327186 0 0 0.202186 0 0.54)
(-0.057605 0 0 0.192395 0 -0.36)
(-0.057605 0 0 -0.057605 0 -0.36)
(0 0 0 0 0 0)
(0.475 0 0 0.25 0 -0.0075)
(0.5 0 0 0.5 0 0)
(-0.230419 0 0 0.769581 0 0.83)
(-0.105419 0 0 0.269581 0 0.7125)
(0.25 0 0 0.5 0 -0.0075)
(0.407081 0 0 0.394581 0 0.97)
(0.827186 0 0 0.202186 0 0.54)
(0.014686 0 0 0.827186 0 0.8375)
(0.202186 0 0 0.327186 0 0.54)
(0.5 0 0 0.5 0 0)
(0.202186 0 0 0.827186 0 0.54)
(0.5 0 0 0.5 0 0.125)
(-0.000192 0 0 -0.03 0 0.114535)
(-0.000173 0 0 -0.0225 0 -0.121919)
(-0.000173 0 0 -0.0225 0 -0.121919)
(-0.00023 0 0 -0.03 0 2.087442)
(-0.000115 0 0 -0.015 0 1.918721)
(0 0 0 0 0 0)
(0 0 0 0 0 0)
(0 0 0 0 0 0)
(0 0 0 0 0 2)
(0 0 0 0 0 1.5)
(0 0 0 0 0 0)
(0 0 0 0 0 0)
(0 0 0 0 0 0)
(0 0 0 0 0 0)
(0 0 0 0 0 0)
(0 0 0 0 0 2.25)
(0 0 0 0 0 2)
(0 0 0 0 0 0)
(0 0 0 0 0 2.25)
(0 0 0 0 0 1.5)
(-0.00023 0 0 0 0 1.837442)
(-0.000173 0 0 0 0 1.378081)
(-0.000173 0 0 0 0 -0.121919)
(-0.00023 0 0 0 0 1.337441)
(-0.000115 0 0 0 0 0.168721)
(0 0 0 0 0 -1.416667)
(0 0 0 0 0 -1.5)
(0 0 0 0 0 -1.5)
(0 0 0 0 0 0.25)
(0 0 0 0 0 1)
(0 0 0 0 0 0)
(0 0 0 0 0 0)
(0 0 0 0 0 0)
(0 0 0 0 0 2)
(0 0 0 0 0 1.5)
(0 0 0 0 0 0)
(0 0 0 0 0 0)
(0 0 0 0 0 0)
(0 0 0 0 0 0)
(0 0 0 0 0 0)
(0 0 0 0 0 2.25)
(0 0 0 0 0 2)
(0 0 0 0 0 0)
(0 0 0 0 0 2.25)
(0 0 0 0 0 1.5)
(0 0 0 0 0 0)
(0 0 0 0 0 0)
(0 0 0 0 0 -1.5)
(0 0 0 0 0 -0.5)
(0 0 0 0 0 -0.75)
(-0.000115 0 0 -0.02 0 -1.997945)
(-0.000115 0 0 -0.015 0 -2.081278)
(-0.000115 0 0 -0.015 0 -2.081278)
(-0.000154 0 0 -0.02 0 -0.525038)
(-7.7e-05 0 0 -0.01 0 0.612481)
(0 0 0 0 0 0)
(0 0 0 0 0 0)
(0 0 0 0 0 0)
(0 0 0 0 0 2)
(0 0 0 0 0 1.5)
(0 0 0 0 0 0)
(0 0 0 0 0 0)
(0 0 0 0 0 0)
(0 0 0 0 0 0)
(0 0 0 0 0 0)
(0 0 0 0 0 2.25)
(0 0 0 0 0 2)
(0 0 0 0 0 0)
(0 0 0 0 0 2.25)
(0 0 0 0 0 1.5)
(-0.000154 0 0 0 0 -0.775037)
(-0.000115 0 0 0 0 -0.581278)
(-0.000115 0 0 0 0 -2.081278)
(-0.000154 0 0 0 0 -1.275038)
(-7.7e-05 0 0 0 0 -1.137519)
(0.250883 0 0 0.270001 0 -2.428759)
(0.000461 0 0 0.015 0 -2.518138)
(0.000461 0 0 0.015 0 -2.518138)
(0.359944 0 0 -0.25021 0 -1.175018)
(0.41367 0 0 -0.019306 0 0.276241)
(0 0 0 0 0 0)
(0 0 0 0 0 0)
(0 0 0 0 0 0)
(0.122291 0 0 -0.177709 0 1.96625)
(0.163593 0 0 0.110694 0 1.4775)
(0 0 0 0 0 0)
(0 0 0 0 0 0)
(0 0 0 0 0 0)
(0.2375 0 0 0 0 -0.00375)
(0.25 0 0 0.25 0 0)
(-0.240209 0 0 0.384791 0 2.2125)
(-0.177709 0 0 0.134791 0 1.96625)
(0 0 0 0.25 0 -0.00375)
(0.197291 0 0 0.197291 0 2.22)
(0.413593 0 0 0.110694 0 1.4775)
(-0.014383 0 0 0.413593 0 -1.417518)
(0.110636 0 0 0.163593 0 -1.063139)
(0.249942 0 0 0.25 0 -2.540639)
(0.110617 0 0 0.413593 0 -1.910018)
(0.249962 0 0 0.25 0 -1.443759)
(1.077186 0 0 0.014686 0 0.8375)
(0.769581 0 0 -0.230419 0 0.72)
(0.884791 0 0 -0.115209 0 0.36)
(0.769581 0 0 -0.230419 0 0.72)
(0.827186 0 0 0.014686 0 0.8375)
(0.202186 0 0 0.202186 0 0.54)
(0.269581 0 0 -0.230419 0 0.72)
(0.384791 0 0 -0.115209 0 0.36)
(0.269581 0 0 -0.230419 0 0.72)
(0.327186 0 0 0.202186 0 0.54)
(0.375 0 0 0.5 0 0)
(0.5 0 0 0 0 0)
(0.5 0 0 0 0 0)
(0.5 0 0 0 0 0)
(0.5 0 0 0.5 0 0)
(0.577186 0 0 0.202186 0 0.54)
(0.769581 0 0 -0.230419 0 0.72)
(0.884791 0 0 -0.115209 0 0.36)
(0.769581 0 0 -0.230419 0 0.72)
(0.827186 0 0 0.202186 0 0.54)
(0.272081 0 0 0.144581 0 0.8375)
(0.357186 0 0 -0.172814 0 0.485027)
(0.297186 0 0 -0.172814 0 0.594973)
(0.269581 0 0 -0.230419 0 0.72)
(0.384791 0 0 0.259791 0 0.4775)
(-0.00023 0 0 -0.03 0 1.837441)
(-0.000173 0 0 -0.0225 0 1.878081)
(-0.000173 0 0 -0.0225 0 0.878081)
(-0.00023 0 0 -0.03 0 1.837442)
(-0.000115 0 0 -0.015 0 1.918721)
(0 0 0 0 0 1.5)
(0 0 0 0 0 2)
(0 0 0 0 0 1)
(0 0 0 0 0 2)
(0 0 0 0 0 1.5)
(0 0 0 0 0 0)
(0 0 0 0 0 0)
(0 0 0 0 0 0)
(0 0 0 0 0 0)
(0 0 0 0 0 0)
(0 0 0 0 0 1.5)
(0 0 0 0 0 2)
(0 0 0 0 0 1)
(0 0 0 0 0 2)
(0 0 0 0 0 1.5)
(-0.00023 0 0 0 0 2.087442)
(-0.000173 0 0 0 0 1.225378)
(-0.000173 0 0 0 0 1.530784)
(-0.00023 0 0 0 0 1.837442)
(-0.000115 0 0 0 0 1.168721)
(0 0 0 0 0 0)
(0 0 0 0 0 0.5)
(0 0 0 0 0 -0.5)
(0 0 0 0 0 0)
(0 0 0 0 0 1)
(0 0 0 0 0 1.5)
(0 0 0 0 0 2)
(0 0 0 0 0 1)
(0 0 0 0 0 2)
(0 0 0 0 0 1.5)
(0 0 0 0 0 0)
(0 0 0 0 0 0)
(0 0 0 0 0 0)
(0 0 0 0 0 0)
(0 0 0 0 0 0)
(0 0 0 0 0 1.5)
(0 0 0 0 0 2)
(0 0 0 0 0 1)
(0 0 0 0 0 2)
(0 0 0 0 0 1.5)
(0 0 0 0 0 0.25)
(0 0 0 0 0 -0.152703)
(0 0 0 0 0 0.152703)
(0 0 0 0 0 0)
(0 0 0 0 0 0.25)
(-0.000154 0 0 -0.02 0 -0.775038)
(-0.000115 0 0 -0.015 0 -0.081278)
(-0.000115 0 0 -0.015 0 -1.081278)
(-0.000154 0 0 -0.02 0 -0.775038)
(-7.7e-05 0 0 -0.01 0 0.612481)
(0 0 0 0 0 1.5)
(0 0 0 0 0 2)
(0 0 0 0 0 1)
(0 0 0 0 0 2)
(0 0 0 0 0 1.5)
(0 0 0 0 0 0)
(0 0 0 0 0 0)
(0 0 0 0 0 0)
(0 0 0 0 0 0)
(0 0 0 0 0 0)
(0 0 0 0 0 1.5)
(0 0 0 0 0 2)
(0 0 0 0 0 1)
(0 0 0 0 0 2)
(0 0 0 0 0 1.5)
(-0.000154 0 0 0 0 -0.525038)
(-0.000115 0 0 0 0 -0.733981)
(-0.000115 0 0 0 0 -0.428575)
(-0.000154 0 0 0 0 -0.775038)
(-7.7e-05 0 0 0 0 -0.137519)
(0.476206 0 0 -0.028507 0 -1.402518)
(0.384906 0 0 -0.12271 0 -0.570639)
(0.44251 0 0 -0.065105 0 -1.555639)
(0.384944 0 0 -0.12521 0 -1.417518)
(0.41367 0 0 -0.019306 0 0.276241)
(0.100477 0 0 0.091492 0 1.4775)
(0.134791 0 0 -0.115209 0 1.97)
(0.192395 0 0 -0.057605 0 0.985)
(0.134791 0 0 -0.115209 0 1.97)
(0.163593 0 0 0.110694 0 1.4775)
(0.1875 0 0 0.25 0 0)
(0.25 0 0 0 0 0)
(0.25 0 0 0 0 0)
(0.25 0 0 0 0 0)
(0.25 0 0 0.25 0 0)
(0.287977 0 0 0.091492 0 1.4775)
(0.384791 0 0 -0.115209 0 1.97)
(0.442395 0 0 -0.057605 0 0.985)
(0.384791 0 0 -0.115209 0 1.97)
(0.413593 0 0 0.110694 0 1.4775)
(0.467329 0 0 0.072291 0 -1.180018)
(0.178535 0 0 -0.086407 0 -1.215841)
(0.148535 0 0 -0.086407 0 -0.910436)
(0.134714 0 0 -0.11521 0 -1.417518)
(0.192357 0 0 0.129895 0 -0.471259)
(1.077186 0 0 0.014686 0 0.8375)
(0.769581 0 0 -0.230419 0 0.72)
(0.884791 0 0 -0.115209 0 0.36)
(0.769581 0 0 -0.230419 0 0.72)
(0.894581 0 0 0.644581 0 1.5)
(0.202186 0 0 0.202186 0 0.54)
(0.269581 0 0 -0.230419 0 0.72)
(0.384791 0 0 -0.115209 0 0.36)
(0.1725 0 0 0.22 0 0.0225)
(-0.230419 0 0 0.769581 0 0.72)
(0.375 0 0 0.5 0 0)
(0.5 0 0 0 0 0)
(0.5 0 0 0 0 0)
(-0.067709 0 0 0.884791 0 0.3675)
(-0.115209 0 0 0.884791 0 0.36)
(0.577186 0 0 0.202186 0 0.54)
(0.489581 0 0 0.192081 0 0.7425)
(0 0 0 0.2975 0 0.0075)
(-0.230419 0 0 0.769581 0 0.72)
(-0.230419 0 0 0.769581 0 0.72)
(0.447291 0 0 0.384791 0 0.485)
(0.202186 0 0 0.327186 0 0.54)
(0.5 0 0 0.5 0 0)
(0.202186 0 0 0.827186 0 0.54)
(0.202186 0 0 0.827186 0 0.8375)
(-0.00023 0 0 -0.03 0 1.837441)
(-0.000173 0 0 -0.0225 0 1.878081)
(-0.000173 0 0 -0.0225 0 0.878081)
(-0.00023 0 0 -0.03 0 1.837442)
(-0.000115 0 0 -0.015 0 2.918721)
(0 0 0 0 0 1.5)
(0 0 0 0 0 2)
(0 0 0 0 0 1)
(0 0 0 0 0 0)
(0 0 0 0 0 2)
(0 0 0 0 0 0)
(0 0 0 0 0 0)
(0 0 0 0 0 0)
(0 0 0 0 0 1)
(0 0 0 0 0 1)
(0 0 0 0 0 1.5)
(0 0 0 0 0 2)
(0 0 0 0 0 0)
(0 0 0 0 0 2)
(0 0 0 0 0 2)
(-0.00023 0 0 0 0 1.087442)
(-0.000173 0 0 0 0 1.378081)
(-0.000173 0 0 0 0 -0.121919)
(-0.00023 0 0 0 0 1.337442)
(-0.000115 0 0 0 0 1.918721)
(0 0 0 0 0 0)
(0 0 0 0 0 0.5)
(0 0 0 0 0 -0.5)
(0 0 0 0 0 0)
(0 0 0 0 0 2)
(0 0 0 0 0 1.5)
(0 0 0 0 0 2)
(0 0 0 0 0 1)
(0 0 0 0 0 0)
(0 0 0 0 0 2)
(0 0 0 0 0 0)
(0 0 0 0 0 0)
(0 0 0 0 0 0)
(0 0 0 0 0 1)
(0 0 0 0 0 1)
(0 0 0 0 0 1.5)
(0 0 0 0 0 2)
(0 0 0 0 0 0)
(0 0 0 0 0 2)
(0 0 0 0 0 2)
(0 0 0 0 0 -0.75)
(0 0 0 0 0 0)
(0 0 0 0 0 -1.5)
(0 0 0 0 0 -0.5)
(0 0 0 0 0 1)
(-0.000154 0 0 -0.02 0 -0.775038)
(-0.000115 0 0 -0.015 0 -0.081278)
(-0.000115 0 0 -0.015 0 -1.081278)
(-0.000154 0 0 -0.02 0 -0.775038)
(-7.7e-05 0 0 -0.01 0 1.612481)
(0 0 0 0 0 1.5)
(0 0 0 0 0 2)
(0 0 0 0 0 1)
(0 0 0 0 0 0)
(0 0 0 0 0 2)
(0 0 0 0 0 0)
(0 0 0 0 0 0)
(0 0 0 0 0 0)
(0 0 0 0 0 1)
(0 0 0 0 0 1)
(0 0 0 0 0 1.5)
(0 0 0 0 0 2)
(0 0 0 0 0 0)
(0 0 0 0 0 2)
(0 0 0 0 0 2)
(-0.000154 0 0 0 0 -1.525038)
(-0.000115 0 0 0 0 -0.581278)
(-0.000115 0 0 0 0 -2.081278)
(-0.000154 0 0 0 0 -1.275037)
(-7.7e-05 0 0 0 0 0.612482)
(0.476206 0 0 -0.028507 0 -1.402518)
(0.384906 0 0 -0.12271 0 -0.570639)
(0.44251 0 0 -0.065105 0 -1.555639)
(0.384944 0 0 -0.12521 0 -1.417518)
(0.447367 0 0 0.254791 0 1.291241)
(0.100477 0 0 0.091492 0 1.4775)
(0.134791 0 0 -0.115209 0 1.97)
(0.192395 0 0 -0.057605 0 0.985)
(0.08625 0 0 0.11 0 0.01125)
(-0.115209 0 0 0.384791 0 1.97)
(0.1875 0 0 0.25 0 0)
(0.25 0 0 0 0 0)
(0.25 0 0 0 0 0)
(-0.033855 0 0 0.442395 0 0.98875)
(-0.057605 0 0 0.442395 0 0.985)
(0.287977 0 0 0.091492 0 1.4775)
(0.244791 0 0 0.096041 0 1.98125)
(0 0 0 0.14875 0 0.00375)
(-0.115209 0 0 0.384791 0 1.97)
(-0.115209 0 0 0.384791 0 1.97)
(0.192434 0 0 0.192395 0 -2.152518)
(0.110636 0 0 0.163593 0 -1.063139)
(0.249942 0 0 0.25 0 -2.540639)
(0.110617 0 0 0.413593 0 -1.910018)
(0.110655 0 0 0.413593 0 0.276241)
(0.014686 0 0 1.077186 0 0.8375)
(0.202186 0 0 0.202186 0 0.54)
(0.5 0 0 0.375 0 0)
(0.202186 0 0 0.577186 0 0.54)
(0.144581 0 0 0.272081 0 0.8375)
(-0.230419 0 0 0.769581 0 0.72)
(-0.230419 0 0 0.269581 0 0.72)
(0 0 0 0.5 0 0)
(-0.230419 0 0 0.769581 0 0.72)
(-0.172814 0 0 0.357186 0 0.485027)
(-0.115209 0 0 0.884791 0 0.36)
(-0.115209 0 0 0.384791 0 0.36)
(0 0 0 0.5 0 0)
(-0.115209 0 0 0.884791 0 0.36)
(-0.172814 0 0 0.297186 0 0.594973)
(-0.230419 0 0 0.769581 0 0.72)
(-0.230419 0 0 0.269581 0 0.72)
(0 0 0 0.5 0 0)
(-0.230419 0 0 0.769581 0 0.72)
(-0.230419 0 0 0.269581 0 0.72)
(0.014686 0 0 0.827186 0 0.8375)
(0.202186 0 0 0.327186 0 0.54)
(0.5 0 0 0.5 0 0)
(0.202186 0 0 0.827186 0 0.54)
(0.259791 0 0 0.384791 0 0.4775)
(-0.00023 0 0 -0.03 0 1.837442)
(-0.000173 0 0 -0.0225 0 1.378082)
(-0.000173 0 0 -0.0225 0 -0.121918)
(-0.00023 0 0 -0.03 0 1.337442)
(-0.000115 0 0 -0.015 0 2.168721)
(0 0 0 0 0 2)
(0 0 0 0 0 2)
(0 0 0 0 0 0)
(0 0 0 0 0 2)
(0 0 0 0 0 1.347298)
(0 0 0 0 0 1)
(0 0 0 0 0 1)
(0 0 0 0 0 0)
(0 0 0 0 0 1)
(0 0 0 0 0 1.652702)
(0 0 0 0 0 2)
(0 0 0 0 0 2)
(0 0 0 0 0 0)
(0 0 0 0 0 2)
(0 0 0 0 0 2)
(-0.00023 0 0 0 0 1.837443)
(-0.000173 0 0 0 0 1.378082)
(-0.000173 0 0 0 0 -0.121918)
(-0.00023 0 0 0 0 1.337442)
(-0.000115 0 0 0 0 1.168721)
(0 0 0 0 0 0)
(0 0 0 0 0 0)
(0 0 0 0 0 -1.5)
(0 0 0 0 0 -0.5)
(0 0 0 0 0 1.25)
(0 0 0 0 0 2)
(0 0 0 0 0 2)
(0 0 0 0 0 0)
(0 0 0 0 0 2)
(0 0 0 0 0 1.347298)
(0 0 0 0 0 1)
(0 0 0 0 0 1)
(0 0 0 0 0 0)
(0 0 0 0 0 1)
(0 0 0 0 0 1.652702)
(0 0 0 0 0 2)
(0 0 0 0 0 2)
(0 0 0 0 0 0)
(0 0 0 0 0 2)
(0 0 0 0 0 2)
(0 0 0 0 0 0)
(0 0 0 0 0 0)
(0 0 0 0 0 -1.5)
(0 0 0 0 0 -0.5)
(0 0 0 0 0 0.25)
(-0.000154 0 0 -0.02 0 -0.775037)
(-0.000115 0 0 -0.015 0 -0.581278)
(-0.000115 0 0 -0.015 0 -2.081278)
(-0.000154 0 0 -0.02 0 -1.275037)
(-7.7e-05 0 0 -0.01 0 0.862481)
(0 0 0 0 0 2)
(0 0 0 0 0 2)
(0 0 0 0 0 0)
(0 0 0 0 0 2)
(0 0 0 0 0 1.347298)
(0 0 0 0 0 1)
(0 0 0 0 0 1)
(0 0 0 0 0 0)
(0 0 0 0 0 1)
(0 0 0 0 0 1.652702)
(0 0 0 0 0 2)
(0 0 0 0 0 2)
(0 0 0 0 0 0)
(0 0 0 0 0 2)
(0 0 0 0 0 2)
(-0.000154 0 0 0 0 -0.775037)
(-0.000115 0 0 0 0 -0.581278)
(-0.000115 0 0 0 0 -2.081278)
(-0.000154 0 0 0 0 -1.275037)
(-7.7e-05 0 0 0 0 -0.137519)
(-0.033239 0 0 0.465477 0 -1.417518)
(0.091492 0 0 0.092977 0 -1.063139)
(0.249942 0 0 0.18 0 -2.540638)
(0.091473 0 0 0.277977 0 -1.910018)
(0.072252 0 0 0.46229 0 0.513741)
(-0.115209 0 0 0.384791 0 1.97)
(-0.115209 0 0 0.134791 0 1.97)
(0 0 0 0.25 0 0)
(-0.115209 0 0 0.384791 0 1.97)
(-0.086407 0 0 0.178593 0 1.324798)
(-0.057605 0 0 0.442395 0 0.985)
(-0.057605 0 0 0.192395 0 0.985)
(0 0 0 0.25 0 0)
(-0.057605 0 0 0.442395 0 0.985)
(-0.086407 0 0 0.148593 0 1.630202)
(-0.115209 0 0 0.384791 0 1.97)
(-0.115209 0 0 0.134791 0 1.97)
(0 0 0 0.25 0 0)
(-0.115209 0 0 0.384791 0 1.97)
(-0.115209 0 0 0.134791 0 1.97)
(-0.014383 0 0 0.413593 0 -1.417518)
(0.110636 0 0 0.163593 0 -1.063138)
(0.249942 0 0 0.25 0 -2.540638)
(0.110617 0 0 0.413593 0 -1.910018)
(0.129857 0 0 0.192395 0 -0.471259)
(0.5025 0 0 0.5025 0 0.11)
(0.5 0 0 0 0 0)
(0.5 0 0 0 0 0)
(0.5 0 0 0 0 0)
(0.5 0 0 0.3125 0 0.1175)
(0 0 0 0.5 0 0)
(0 0 0 0 0 0)
(0 0 0 0 0 0)
(0 0 0 0 0 0)
(0 0 0 0.5 0 0)
(0 0 0 0.5 0 0)
(0 0 0 0 0 0)
(0 0 0 0 0 0)
(0 0 0 0 0 0)
(0 0 0 0.5 0 0)
(0 0 0 0.5 0 0)
(0 0 0 0 0 0)
(0 0 0 0 0 0)
(0 0 0 0 0 0)
(0 0 0 0.5 0 0)
(0.3125 0 0 0.5 0 0.1175)
(0.5 0 0 0 0 0)
(0.5 0 0 0 0 0)
(0.5 0 0 0 0 0)
(0.5 0 0 0.5 0 0.125)
(-0.00023 0 0 -0.03 0 0.087442)
(-0.000173 0 0 -0.0225 0 -0.121918)
(-0.000173 0 0 -0.0225 0 -0.121918)
(-0.00023 0 0 -0.03 0 -0.162558)
(-0.000115 0 0 -0.015 0 0.168721)
(0 0 0 0 0 0)
(0 0 0 0 0 0)
(0 0 0 0 0 0)
(0 0 0 0 0 0)
(0 0 0 0 0 0)
(0 0 0 0 0 0)
(0 0 0 0 0 0)
(0 0 0 0 0 0)
(0 0 0 0 0 0)
(0 0 0 0 0 0)
(0 0 0 0 0 0)
(0 0 0 0 0 0)
(0 0 0 0 0 0)
(0 0 0 0 0 0)
(0 0 0 0 0 0)
(-0.00023 0 0 0 0 0.087442)
(-0.000173 0 0 0 0 -0.121918)
(-0.000173 0 0 0 0 -0.121918)
(-0.00023 0 0 0 0 -0.162558)
(-0.000115 0 0 0 0 0.168721)
(0 0 0 0 0 -1.75)
(0 0 0 0 0 -1.5)
(0 0 0 0 0 -1.5)
(0 0 0 0 0 -2)
(0 0 0 0 0 -0.75)
(0 0 0 0 0 0)
(0 0 0 0 0 0)
(0 0 0 0 0 0)
(0 0 0 0 0 0)
(0 0 0 0 0 0)
(0 0 0 0 0 0)
(0 0 0 0 0 0)
(0 0 0 0 0 0)
(0 0 0 0 0 0)
(0 0 0 0 0 0)
(0 0 0 0 0 0)
(0 0 0 0 0 0)
(0 0 0 0 0 0)
(0 0 0 0 0 0)
(0 0 0 0 0 0)
(0 0 0 0 0 -1.75)
(0 0 0 0 0 -1.5)
(0 0 0 0 0 -1.5)
(0 0 0 0 0 -2)
(0 0 0 0 0 -0.75)
(-0.000154 0 0 -0.02 0 -2.525037)
(-0.000115 0 0 -0.015 0 -2.081278)
(-0.000115 0 0 -0.015 0 -2.081278)
(-0.000154 0 0 -0.02 0 -2.775037)
(-7.7e-05 0 0 -0.01 0 -1.137519)
(0 0 0 0 0 0)
(0 0 0 0 0 0)
(0 0 0 0 0 0)
(0 0 0 0 0 0)
(0 0 0 0 0 0)
(0 0 0 0 0 0)
(0 0 0 0 0 0)
(0 0 0 0 0 0)
(0 0 0 0 0 0)
(0 0 0 0 0 0)
(0 0 0 0 0 0)
(0 0 0 0 0 0)
(0 0 0 0 0 0)
(0 0 0 0 0 0)
(0 0 0 0 0 0)
(-0.000154 0 0 0 0 -2.525037)
(-0.000115 0 0 0 0 -2.081278)
(-0.000115 0 0 0 0 -2.081278)
(-0.000154 0 0 0 0 -2.775037)
(-7.7e-05 0 0 0 0 -1.137519)
(0.39573 0 0 0.400001 0 -3.100018)
(0.000115 0 0 -0.0075 0 -2.540638)
(0.000115 0 0 -0.0075 0 -2.540638)
(0.000154 0 0 -0.01 0 -3.387518)
(7.7e-05 0 0 0.0575 0 -1.456259)
(0 0 0 0 0 0)
(0 0 0 0 0 0)
(0 0 0 0 0 0)
(0 0 0 0 0 0)
(0 0 0 0 0 0)
(0 0 0 0 0 0)
(0 0 0 0 0 0)
(0 0 0 0 0 0)
(0 0 0 0 0 0)
(0 0 0 0 0 0)
(0 0 0 0 0 0)
(0 0 0 0 0 0)
(0 0 0 0 0 0)
(0 0 0 0 0 0)
(0 0 0 0 0 0)
(0.062538 0 0 0 0 -3.150018)
(-5.8e-05 0 0 0 0 -2.540638)
(-5.8e-05 0 0 0 0 -2.540638)
(-7.7e-05 0 0 0 0 -3.387518)
(-3.8e-05 0 0 0 0 -1.456259)
(0.207081 0 0 0.462081 0 0.83)
(0.202186 0 0 0.202186 0 0.54)
(0.5 0 0 0.375 0 0)
(0.202186 0 0 0.577186 0 0.54)
(0.202186 0 0 1.077186 0 0.8375)
(-0.172814 0 0 0.357186 0 0.485027)
(-0.230419 0 0 0.269581 0 0.72)
(0 0 0 0.5 0 0)
(-0.230419 0 0 0.769581 0 0.72)
(-0.230419 0 0 0.769581 0 0.72)
(-0.172814 0 0 0.297186 0 0.594973)
(-0.115209 0 0 0.384791 0 0.36)
(0 0 0 0.5 0 0)
(-0.115209 0 0 0.884791 0 0.36)
(-0.115209 0 0 0.884791 0 0.36)
(-0.230419 0 0 0.269581 0 0.72)
(-0.230419 0 0 0.269581 0 0.72)
(0 0 0 0.5 0 0)
(-0.230419 0 0 0.769581 0 0.72)
(-0.230419 0 0 0.769581 0 0.72)
(0.072291 0 0 0.384791 0 0.47)
(0.202186 0 0 0.327186 0 0.54)
(0.5 0 0 0.5 0 0)
(0.202186 0 0 0.827186 0 0.54)
(0.202186 0 0 0.827186 0 0.8375)
(-0.00023 0 0 -0.03 0 2.087442)
(-0.000173 0 0 -0.0225 0 1.378082)
(-0.000173 0 0 -0.0225 0 -0.121918)
(-0.00023 0 0 -0.03 0 1.337442)
(-0.000115 0 0 -0.015 0 1.918721)
(0 0 0 0 0 1.347298)
(0 0 0 0 0 2)
(0 0 0 0 0 0)
(0 0 0 0 0 2)
(0 0 0 0 0 2)
(0 0 0 0 0 1.652702)
(0 0 0 0 0 1)
(0 0 0 0 0 0)
(0 0 0 0 0 1)
(0 0 0 0 0 1)
(0 0 0 0 0 2)
(0 0 0 0 0 2)
(0 0 0 0 0 0)
(0 0 0 0 0 2)
(0 0 0 0 0 2)
(-0.00023 0 0 0 0 1.087442)
(-0.000173 0 0 0 0 1.378082)
(-0.000173 0 0 0 0 -0.121918)
(-0.00023 0 0 0 0 1.337442)
(-0.000115 0 0 0 0 1.918721)
(0 0 0 0 0 0.25)
(0 0 0 0 0 0)
(0 0 0 0 0 -1.5)
(0 0 0 0 0 -0.5)
(0 0 0 0 0 1)
(0 0 0 0 0 1.347298)
(0 0 0 0 0 2)
(0 0 0 0 0 0)
(0 0 0 0 0 2)
(0 0 0 0 0 2)
(0 0 0 0 0 1.652702)
(0 0 0 0 0 1)
(0 0 0 0 0 0)
(0 0 0 0 0 1)
(0 0 0 0 0 1)
(0 0 0 0 0 2)
(0 0 0 0 0 2)
(0 0 0 0 0 0)
(0 0 0 0 0 2)
(0 0 0 0 0 2)
(0 0 0 0 0 -0.75)
(0 0 0 0 0 0)
(0 0 0 0 0 -1.5)
(0 0 0 0 0 -0.5)
(0 0 0 0 0 1)
(-0.000154 0 0 -0.02 0 -0.525037)
(-0.000115 0 0 -0.015 0 -0.581278)
(-0.000115 0 0 -0.015 0 -2.081278)
(-0.000154 0 0 -0.02 0 -1.275037)
(-7.7e-05 0 0 -0.01 0 0.612481)
(0 0 0 0 0 1.347298)
(0 0 0 0 0 2)
(0 0 0 0 0 0)
(0 0 0 0 0 2)
(0 0 0 0 0 2)
(0 0 0 0 0 1.652702)
(0 0 0 0 0 1)
(0 0 0 0 0 0)
(0 0 0 0 0 1)
(0 0 0 0 0 1)
(0 0 0 0 0 2)
(0 0 0 0 0 2)
(0 0 0 0 0 0)
(0 0 0 0 0 2)
(0 0 0 0 0 2)
(-0.000154 0 0 0 0 -1.525037)
(-0.000115 0 0 0 0 -0.581278)
(-0.000115 0 0 0 0 -2.081278)
(-0.000154 0 0 0 0 -1.275037)
(-7.7e-05 0 0 0 0 0.612482)
(0.072559 0 0 0.314791 0 -1.187518)
(0.091492 0 0 0.092977 0 -1.063138)
(0.249942 0 0 0.18 0 -2.540638)
(0.091473 0 0 0.277977 0 -1.910018)
(0.091454 0 0 0.470477 0 0.27624)
(-0.086407 0 0 0.178593 0 1.324798)
(-0.115209 0 0 0.134791 0 1.97)
(0 0 0 0.25 0 0)
(-0.115209 0 0 0.384791 0 1.97)
(-0.115209 0 0 0.384791 0 1.97)
(-0.086407 0 0 0.148593 0 1.630202)
(-0.057605 0 0 0.192395 0 0.985)
(0 0 0 0.25 0 0)
(-0.057605 0 0 0.442395 0 0.985)
(-0.057605 0 0 0.442395 0 0.985)
(-0.115209 0 0 0.134791 0 1.97)
(-0.115209 0 0 0.134791 0 1.97)
(0 0 0 0.25 0 0)
(-0.115209 0 0 0.384791 0 1.97)
(-0.115209 0 0 0.384791 0 1.97)
(0.004818 0 0 0.192395 0 -2.172518)
(0.110636 0 0 0.163593 0 -1.063139)
(0.249942 0 0 0.25 0 -2.540638)
(0.110617 0 0 0.413593 0 -1.910018)
(0.110655 0 0 0.413593 0 0.276241)
(0.014686 0 0 1.077186 0 0.8375)
(0.202186 0 0 0.202186 0 0.54)
(0.5 0 0 0.375 0 0)
(0.202186 0 0 0.577186 0 0.54)
(0.384791 0 0 0.447291 0 0.485)
(-0.230419 0 0 0.769581 0 0.72)
(-0.230419 0 0 0.269581 0 0.72)
(0 0 0 0.5 0 0)
(0.192081 0 0 0.489581 0 0.7425)
(0.327186 0 0 0.202186 0 0.54)
(-0.115209 0 0 0.884791 0 0.36)
(-0.115209 0 0 0.384791 0 0.36)
(0 0 0 0.5 0 0)
(0.2975 0 0 0 0 0.0075)
(0.5 0 0 0.5 0 0)
(-0.230419 0 0 0.769581 0 0.72)
(0.22 0 0 0.1725 0 0.0225)
(0.884791 0 0 -0.067709 0 0.3675)
(0.769581 0 0 -0.230419 0 0.72)
(0.827186 0 0 0.202186 0 0.54)
(0.644581 0 0 0.894581 0 1.5)
(0.769581 0 0 -0.230419 0 0.72)
(0.884791 0 0 -0.115209 0 0.36)
(0.769581 0 0 -0.230419 0 0.72)
(0.827186 0 0 0.202186 0 0.8375)
(-0.00023 0 0 -0.03 0 1.837443)
(-0.000173 0 0 -0.0225 0 1.378082)
(-0.000173 0 0 -0.0225 0 -0.121918)
(-0.00023 0 0 -0.03 0 1.337443)
(-0.000115 0 0 -0.015 0 1.168721)
(0 0 0 0 0 2)
(0 0 0 0 0 2)
(0 0 0 0 0 0)
(0 0 0 0 0 2)
(0 0 0 0 0 1.5)
(0 0 0 0 0 1)
(0 0 0 0 0 1)
(0 0 0 0 0 0)
(0 0 0 0 0 0)
(0 0 0 0 0 0)
(0 0 0 0 0 2)
(0 0 0 0 0 0)
(0 0 0 0 0 1)
(0 0 0 0 0 2)
(0 0 0 0 0 1.5)
(-0.000115 0 0 0 0 2.837443)
(-8.7e-05 0 0 0 0 1.878082)
(-8.6e-05 0 0 0 0 0.878082)
(-0.000115 0 0 0 0 1.837443)
(-5.8e-05 0 0 0 0 1.918722)
(0 0 0 0 0 0)
(0 0 0 0 0 0)
(0 0 0 0 0 -1.5)
(0 0 0 0 0 -0.5)
(0 0 0 0 0 0.25)
(0 0 0 0 0 2)
(0 0 0 0 0 2)
(0 0 0 0 0 0)
(0 0 0 0 0 2)
(0 0 0 0 0 1.5)
(0 0 0 0 0 1)
(0 0 0 0 0 1)
(0 0 0 0 0 0)
(0 0 0 0 0 0)
(0 0 0 0 0 0)
(0 0 0 0 0 2)
(0 0 0 0 0 0)
(0 0 0 0 0 1)
(0 0 0 0 0 2)
(0 0 0 0 0 1.5)
(0 0 0 0 0 1)
(0 0 0 0 0 0.5)
(0 0 0 0 0 -0.5)
(0 0 0 0 0 0)
(0 0 0 0 0 1)
(-0.000154 0 0 -0.02 0 -0.775037)
(-0.000115 0 0 -0.015 0 -0.581278)
(-0.000115 0 0 -0.015 0 -2.081277)
(-0.000154 0 0 -0.02 0 -1.275036)
(-7.7e-05 0 0 -0.01 0 -0.137518)
(0 0 0 0 0 2)
(0 0 0 0 0 2)
(0 0 0 0 0 0)
(0 0 0 0 0 2)
(0 0 0 0 0 1.5)
(0 0 0 0 0 1)
(0 0 0 0 0 1)
(0 0 0 0 0 0)
(0 0 0 0 0 0)
(0 0 0 0 0 0)
(0 0 0 0 0 2)
(0 0 0 0 0 0)
(0 0 0 0 0 1)
(0 0 0 0 0 2)
(0 0 0 0 0 1.5)
(-7.7e-05 0 0 0 0 0.224963)
(-5.8e-05 0 0 0 0 -0.081277)
(-5.8e-05 0 0 0 0 -1.081277)
(-7.7e-05 0 0 0 0 -0.775037)
(-3.8e-05 0 0 0 0 0.612482)
(-0.033239 0 0 0.465477 0 -1.417518)
(0.091492 0 0 0.092977 0 -1.063138)
(0.249942 0 0 0.18 0 -2.540638)
(0.091473 0 0 0.277977 0 -1.910018)
(0.192357 0 0 0.187395 0 -0.458759)
(-0.115209 0 0 0.384791 0 1.97)
(-0.115209 0 0 0.134791 0 1.97)
(0 0 0 0.25 0 0)
(0.096041 0 0 0.244791 0 1.98125)
(0.163593 0 0 0.110694 0 1.4775)
(-0.057605 0 0 0.442395 0 0.985)
(-0.057605 0 0 0.192395 0 0.985)
(0 0 0 0.25 0 0)
(0.14875 0 0 0 0 0.00375)
(0.25 0 0 0.25 0 0)
(-0.115209 0 0 0.384791 0 1.97)
(0.11 0 0 0.08625 0 0.01125)
(0.442395 0 0 -0.033855 0 0.98875)
(0.384791 0 0 -0.115209 0 1.97)
(0.413593 0 0 0.110694 0 1.4775)
(0.259752 0 0 0.44729 0 -0.402518)
(0.384762 0 0 -0.11521 0 -0.570638)
(0.442366 0 0 -0.057605 0 -1.555638)
(0.384752 0 0 -0.11521 0 -1.417518)
(0.413574 0 0 0.110694 0 0.276241)
(0.462081 0 0 0.207081 0 0.83)
(0.357186 0 0 -0.172814 0 0.485027)
(0.297186 0 0 -0.172814 0 0.594973)
(0.269581 0 0 -0.230419 0 0.72)
(0.384791 0 0 0.072291 0 0.47)
(0.202186 0 0 0.202186 0 0.54)
(0.269581 0 0 -0.230419 0 0.72)
(0.384791 0 0 -0.115209 0 0.36)
(0.269581 0 0 -0.230419 0 0.72)
(0.327186 0 0 0.202186 0 0.54)
(0.375 0 0 0.5 0 0)
(0.5 0 0 0 0 0)
(0.5 0 0 0 0 0)
(0.5 0 0 0 0 0)
(0.5 0 0 0.5 0 0)
(0.577186 0 0 0.202186 0 0.54)
(0.769581 0 0 -0.230419 0 0.72)
(0.884791 0 0 -0.115209 0 0.36)
(0.769581 0 0 -0.230419 0 0.72)
(0.827186 0 0 0.202186 0 0.54)
(1.077186 0 0 0.202186 0 0.8375)
(0.769581 0 0 -0.230419 0 0.72)
(0.884791 0 0 -0.115209 0 0.36)
(0.769581 0 0 -0.230419 0 0.72)
(0.827186 0 0 0.202186 0 0.8375)
(-0.00023 0 0 -0.03 0 2.087443)
(-0.000173 0 0 -0.0225 0 1.225379)
(-0.000173 0 0 -0.0225 0 1.530785)
(-0.00023 0 0 -0.03 0 1.837443)
(-0.000115 0 0 -0.015 0 1.168721)
(0 0 0 0 0 1.5)
(0 0 0 0 0 2)
(0 0 0 0 0 1)
(0 0 0 0 0 2)
(0 0 0 0 0 1.5)
(0 0 0 0 0 0)
(0 0 0 0 0 0)
(0 0 0 0 0 0)
(0 0 0 0 0 0)
(0 0 0 0 0 0)
(0 0 0 0 0 1.5)
(0 0 0 0 0 2)
(0 0 0 0 0 1)
(0 0 0 0 0 2)
(0 0 0 0 0 1.5)
(-0.000115 0 0 0 0 1.837443)
(-8.7e-05 0 0 0 0 1.878082)
(-8.6e-05 0 0 0 0 0.878082)
(-0.000115 0 0 0 0 1.837443)
(-5.8e-05 0 0 0 0 1.918722)
(0 0 0 0 0 0.25)
(0 0 0 0 0 -0.152703)
(0 0 0 0 0 0.152703)
(0 0 0 0 0 0)
(0 0 0 0 0 0.25)
(0 0 0 0 0 1.5)
(0 0 0 0 0 2)
(0 0 0 0 0 1)
(0 0 0 0 0 2)
(0 0 0 0 0 1.5)
(0 0 0 0 0 0)
(0 0 0 0 0 0)
(0 0 0 0 0 0)
(0 0 0 0 0 0)
(0 0 0 0 0 0)
(0 0 0 0 0 1.5)
(0 0 0 0 0 2)
(0 0 0 0 0 1)
(0 0 0 0 0 2)
(0 0 0 0 0 1.5)
(0 0 0 0 0 0)
(0 0 0 0 0 0.5)
(0 0 0 0 0 -0.5)
(0 0 0 0 0 0)
(0 0 0 0 0 1)
(-0.000154 0 0 -0.02 0 -0.525037)
(-0.000115 0 0 -0.015 0 -0.73398)
(-0.000115 0 0 -0.015 0 -0.428575)
(-0.000154 0 0 -0.02 0 -0.775037)
(-7.7e-05 0 0 -0.01 0 -0.137518)
(0 0 0 0 0 1.5)
(0 0 0 0 0 2)
(0 0 0 0 0 1)
(0 0 0 0 0 2)
(0 0 0 0 0 1.5)
(0 0 0 0 0 0)
(0 0 0 0 0 0)
(0 0 0 0 0 0)
(0 0 0 0 0 0)
(0 0 0 0 0 0)
(0 0 0 0 0 1.5)
(0 0 0 0 0 2)
(0 0 0 0 0 1)
(0 0 0 0 0 2)
(0 0 0 0 0 1.5)
(-7.7e-05 0 0 0 0 -0.775037)
(-5.8e-05 0 0 0 0 -0.081277)
(-5.8e-05 0 0 0 0 -1.081277)
(-7.7e-05 0 0 0 0 -0.775037)
(-3.8e-05 0 0 0 0 0.612482)
(0.32552 0 0 0.077291 0 -1.172517)
(0.178708 0 0 -0.093907 0 -1.215841)
(0.148708 0 0 -0.093907 0 -0.910435)
(0.134944 0 0 -0.12521 0 -1.417518)
(0.192472 0 0 -0.000105 0 -0.478759)
(0.100477 0 0 0.091492 0 1.4775)
(0.134791 0 0 -0.115209 0 1.97)
(0.192395 0 0 -0.057605 0 0.985)
(0.134791 0 0 -0.115209 0 1.97)
(0.163593 0 0 0.110694 0 1.4775)
(0.1875 0 0 0.25 0 0)
(0.25 0 0 0 0 0)
(0.25 0 0 0 0 0)
(0.25 0 0 0 0 0)
(0.25 0 0 0.25 0 0)
(0.287977 0 0 0.091492 0 1.4775)
(0.384791 0 0 -0.115209 0 1.97)
(0.442395 0 0 -0.057605 0 0.985)
(0.384791 0 0 -0.115209 0 1.97)
(0.413593 0 0 0.110694 0 1.4775)
(0.475496 0 0 0.091492 0 -1.417518)
(0.384762 0 0 -0.11521 0 -0.570638)
(0.442366 0 0 -0.057605 0 -1.555638)
(0.384752 0 0 -0.11521 0 -1.417518)
(0.413574 0 0 0.110694 0 0.276241)
(0.582081 0 0 0.582081 0 0.845)
(0.202186 0 0 0.202186 0 0.54)
(0.5 0 0 0.375 0 0)
(0.202186 0 0 0.577186 0 0.54)
(0.202186 0 0 1.077186 0 0.8375)
(0.202186 0 0 0.202186 0 0.54)
(0.192081 0 0 0.192081 0 0.985)
(0.25 0 0 0.2975 0 0.0075)
(-0.105419 0 0 0.769581 0 0.705)
(-0.105419 0 0 0.769581 0 0.829999)
(0.375 0 0 0.5 0 0)
(0.2975 0 0 0.25 0 0.0075)
(0 0 0 0 0 0)
(-0.057605 0 0 -0.057605 0 -0.36)
(-0.057605 0 0 0.192395 0 -0.36)
(0.577186 0 0 0.202186 0 0.54)
(0.769581 0 0 -0.105419 0 0.705)
(-0.057605 0 0 -0.057605 0 -0.36)
(0 0 0 0 0 0)
(-0.115209 0 0 0.134791 0 -0.72)
(1.077186 0 0 0.202186 0 0.8375)
(0.769581 0 0 -0.105419 0 0.83)
(0.192395 0 0 -0.057605 0 -0.36)
(0.134791 0 0 -0.115209 0 -0.72)
(0.134791 0 0 0.134791 0 0.03)
(-0.00023 0 0 -0.03 0 2.087443)
(-0.000173 0 0 -0.0225 0 1.378082)
(-0.000173 0 0 -0.0225 0 -0.121918)
(-0.00023 0 0 -0.03 0 1.337443)
(-0.000115 0 0 -0.015 0 1.918721)
(0 0 0 0 0 1.5)
(0 0 0 0 0 2.25)
(0 0 0 0 0 0)
(0 0 0 0 0 2)
(0 0 0 0 0 2.25)
(0 0 0 0 0 0)
(0 0 0 0 0 0)
(0 0 0 0 0 0)
(0 0 0 0 0 0)
(0 0 0 0 0 0)
(0 0 0 0 0 1.5)
(0 0 0 0 0 2)
(0 0 0 0 0 0)
(0 0 0 0 0 0)
(0 0 0 0 0 0)
(-0.000115 0 0 0 0 1.837443)
(-8.7e-05 0 0 0 0 2.128082)
(-8.6e-05 0 0 0 0 -0.121918)
(-0.000115 0 0 0 0 -0.162557)
(-5.8e-05 0 0 0 0 0.168721)
(0 0 0 0 0 0.25)
(0 0 0 0 0 0)
(0 0 0 0 0 -1.5)
(0 0 0 0 0 -0.5)
(0 0 0 0 0 1)
(0 0 0 0 0 1.5)
(0 0 0 0 0 2.25)
(0 0 0 0 0 0)
(0 0 0 0 0 2)
(0 0 0 0 0 2.25)
(0 0 0 0 0 0)
(0 0 0 0 0 0)
(0 0 0 0 0 0)
(0 0 0 0 0 0)
(0 0 0 0 0 0)
(0 0 0 0 0 1.5)
(0 0 0 0 0 2)
(0 0 0 0 0 0)
(0 0 0 0 0 0)
(0 0 0 0 0 0)
(0 0 0 0 0 0)
(0 0 0 0 0 0.75)
(0 0 0 0 0 -1.5)
(0 0 0 0 0 -2)
(0 0 0 0 0 -0.75)
(-0.000154 0 0 -0.02 0 -0.525037)
(-0.000115 0 0 -0.015 0 -0.581277)
(-0.000115 0 0 -0.015 0 -2.081277)
(-0.000154 0 0 -0.02 0 -1.275037)
(-7.7e-05 0 0 -0.01 0 0.612481)
(0 0 0 0 0 1.5)
(0 0 0 0 0 2.25)
(0 0 0 0 0 0)
(0 0 0 0 0 2)
(0 0 0 0 0 2.25)
(0 0 0 0 0 0)
(0 0 0 0 0 0)
(0 0 0 0 0 0)
(0 0 0 0 0 0)
(0 0 0 0 0 0)
(0 0 0 0 0 1.5)
(0 0 0 0 0 2)
(0 0 0 0 0 0)
(0 0 0 0 0 0)
(0 0 0 0 0 0)
(-7.7e-05 0 0 0 0 -0.775037)
(-5.8e-05 0 0 0 0 0.168723)
(-5.8e-05 0 0 0 0 -2.081277)
(-7.7e-05 0 0 0 0 -2.775037)
(-3.8e-05 0 0 0 0 -1.137518)
(0.260405 0 0 0.264791 0 -1.152517)
(0.091492 0 0 0.092977 0 -1.063138)
(0.249942 0 0 0.18 0 -2.540638)
(0.091473 0 0 0.277977 0 -1.910018)
(0.091454 0 0 0.470477 0 0.276241)
(0.100477 0 0 0.091492 0 1.4775)
(0.096041 0 0 0.096041 0 2.2275)
(0 0 0 0.14875 0 0.00375)
(-0.17771 0 0 0.384791 0 1.9625)
(-0.177709 0 0 0.384791 0 2.2125)
(0.1875 0 0 0.25 0 0)
(0.14875 0 0 0 0 0.00375)
(0 0 0 0 0 0)
(0 0 0 0 0 0)
(0 0 0 0 0 0)
(0.287977 0 0 0.091492 0 1.4775)
(0.384791 0 0 -0.177709 0 1.9625)
(0 0 0 0 0 0)
(0 0 0 0 0 0)
(0 0 0 0 0 0)
(0.475496 0 0 0.091492 0 -1.417518)
(0.384762 0 0 -0.17771 0 -0.320638)
(5.8e-05 0 0 0 0 -2.518138)
(7.7e-05 0 0 0 0 -3.357517)
(3.8e-05 0 0 0 0 -1.428759)
(0.685173 0 0 1.054793 0 -2.389039)
(0.135655 0 0 0.469792 0 -2.9925)
(0.193259 0 0 0.527396 0 -2.985)
(0.372982 0 0 0.759791 0 -3.985)
(0.413938 0 0 0.345694 0 -1.79125)
(-0.115209 0 0 2.134791 0 -0.015)
(0 0 0 1.5 0 0.00375)
(-0.057605 0 0 1.442395 0 -0.0075)
(0.122291 0 0 2.072291 0 -0.015)
(0.163593 0 0 1.110694 0 -0.0125)
(-0.057605 0 0 2.192395 0 -0.0075)
(-0.057605 0 0 1.442396 0 -0.0075)
(0 0 0 1.5 0 -0.00375)
(0.2375 0 0 2.25 0 0)
(0.25 0 0 1.25 0 -0.00375)
(0.009791 0 0 2.384791 0 -0.015)
(0.072291 0 0 1.634791 0 -0.015)
(0.25 0 0 1.75 0 0)
(0.209791 0 0 2.197291 0 -0.015)
(0.413593 0 0 1.110694 0 -0.01625)
(0.235924 0 0 2.376093 0 -3.74375)
(0.110694 0 0 1.641093 0 -3.0125)
(0.25 0 0 1.7275 0 -3.00375)
(0.110694 0 0 2.383593 0 -4.01625)
(0.25 0 0 1.2275 0 -1.9125)
(0.298654 0 0 0.7575 0 -2.789746)
(0.5 0 0 0.5625 0 -3)
(0.5 0 0 0.5625 0 -3)
(0.5 0 0 0.75 0 -4)
(0.5 0 0 0.375 0 -1.625)
(0 0 0 2 0 0)
(0 0 0 1.500001 0 0)
(0 0 0 1.499999 0 0)
(0 0 0 2 0 0)
(0 0 0 1 0 0)
(0 0 0 2 0 0)
(0 0 0 1.500001 0 0)
(0 0 0 1.499999 0 0)
(0 0 0 2 0 0)
(0 0 0 1 0 0)
(0 0 0 2 0 0)
(0 0 0 1.500001 0 0)
(0 0 0 1.499999 0 0)
(0 0 0 2 0 0)
(0 0 0 1 0 0)
(0.1875 0 0 1.97375 0 -3.5625)
(0.25 0 0 1.477501 0 -3)
(0.25 0 0 1.4775 0 -3)
(0.25 0 0 1.97 0 -4)
(0.25 0 0 0.985 0 -1.8125)
(0.375154 0 0 0.0075 0 -3)
(0.5 0 0 0 0 -3)
(0.5 0 0 0 0 -3)
(0.5 0 0 0 0 -4)
(0.5 0 0 0 0 -1.5)
(0 0 0 0 0 0)
(0 0 0 0 0 0)
(0 0 0 0 0 0)
(0 0 0 0 0 0)
(0 0 0 0 0 0)
(0 0 0 0 0 0)
(0 0 0 0 0 0)
(0 0 0 0 0 0)
(0 0 0 0 0 0)
(0 0 0 0 0 0)
(0 0 0 0 0 0)
(0 0 0 0 0 0)
(0 0 0 0 0 0)
(0 0 0 0 0 0)
(0 0 0 0 0 0)
(0.1875 0 0 0.00375 0 -3.5)
(0.25 0 0 0 0 -3)
(0.25 0 0 0 0 -3)
(0.25 0 0 0 0 -4)
(0.25 0 0 0 0 -1.75)
(0.673808 0 0 0.765001 0 -2.789746)
(1 0 0 0.5625 0 -3)
(1 0 0 0.5625 0 -3)
(1 0 0 0.75 0 -4)
(1 0 0 0.375 0 -1.625)
(0 0 0 2 0 0)
(0 0 0 1.500001 0 0)
(0 0 0 1.499999 0 0)
(0 0 0 2 0 0)
(0 0 0 1 0 0)
(0 0 0 2 0 0)
(0 0 0 1.500001 0 0)
(0 0 0 1.499999 0 0)
(0 0 0 2 0 0)
(0 0 0 1 0 0)
(0 0 0 2 0 0)
(0 0 0 1.500001 0 0)
(0 0 0 1.499999 0 0)
(0 0 0 2 0 0)
(0 0 0 1 0 0)
(0.375 0 0 1.977501 0 -3.5625)
(0.5 0 0 1.477501 0 -3)
(0.5 0 0 1.4775 0 -3)
(0.5 0 0 1.97 0 -4)
(0.5 0 0 0.985 0 -1.8125)
(1.174576 0 0 1.455002 0 -2.87404)
(1 0 0 0.5175 0 -3)
(1 0 0 0.517499 0 -3)
(1 0 0 0.69 0 -4)
(1 0 0 0.6425 0 -1.625)
(0 0 0 3 0 0)
(0 0 0 1.500001 0 0)
(0 0 0 1.499999 0 0)
(0 0 0 2 0 0)
(0 0 0 1.5 0 0)
(0 0 0 3 0 0)
(0 0 0 1.500001 0 0)
(0 0 0 1.499999 0 0)
(0 0 0 2 0 0)
(0 0 0 1.5 0 0)
(0 0 0 3 0 0)
(0 0 0 1.500001 0 0)
(0 0 0 1.499999 0 0)
(0 0 0 2 0 0)
(0 0 0 1.5 0 0)
(0.56227 0 0 2.9625 0 -3.5625)
(0.499654 0 0 1.477501 0 -3)
(0.499655 0 0 1.477499 0 -3)
(0.499539 0 0 1.97 0 -4)
(0.49977 0 0 1.4775 0 -1.8125)
(0.900629 0 0 0.746494 0 -2.750288)
(0.385309 0 0 0.447291 0 -2.9925)
(0.442913 0 0 0.504896 0 -2.985)
(0.385482 0 0 0.634791 0 -3.985)
(0.413938 0 0 0.345694 0 -1.79125)
(0.100477 0 0 2.091492 0 -0.0175)
(0.134791 0 0 1.384791 0 -0.015)
(0.192395 0 0 1.442395 0 -0.0075)
(0.134791 0 0 1.884791 0 -0.015)
(0.163593 0 0 1.110694 0 -0.0125)
(0.1875 0 0 2.25 0 -0.00375)
(0.25 0 0 1.5 0 0)
(0.25 0 0 1.5 0 0)
(0.25 0 0 2 0 0)
(0.25 0 0 1.25 0 -0.00375)
(0.287977 0 0 2.091492 0 -0.02125)
(0.384791 0 0 1.384791 0 -0.015)
(0.442395 0 0 1.442395 0 -0.0075)
(0.384791 0 0 1.884791 0 -0.015)
(0.413593 0 0 1.110694 0 -0.01625)
(0.717636 0 0 2.034791 0 -3.86)
(0.178593 0 0 1.391094 0 -3.012395)