v 0 -0.5 -0.05
v 0 -0.5 0.05
v 0 -0.4 -0.05
v 0 -0.4 0.05
v 0 -0.3 -0.05
v 0 -0.3 0.05
v 0 -0.2 -0.05
v 0 -0.2 0.05
v 0 -0.1 -0.05
v 0 -0.1 0.05
v 0 0 -0.05
v 0 0 0.05
v 0 0.1 -0.05
v 0 0.1 0.05
v 0 0.2 -0.05
v 0 0.2 0.05
v 0 0.3 -0.05
v 0 0.3 0.05
v 0 0.4 -0.05
v 0 0.4 0.05
v 0 0.5 -0.05
v 0 0.5 0.05
v 0 -0.45 -0.05
v 0 -0.5 0
v 0 -0.45 0
v 0 -0.45 0.05
v 0 -0.4 0
v 0 -0.35 -0.05
v 0 -0.35 0
v 0 -0.35 0.05
v 0 -0.3 0
v 0 -0.25 -0.05
v 0 -0.25 0
v 0 -0.25 0.05
v 0 -0.2 0
v 0 -0.15 -0.05
v 0 -0.15 0
v 0 -0.15 0.05
v 0 -0.1 0
v 0 -0.05 -0.05
v 0 -0.05 0
v 0 -0.05 0.05
v 0 0 0
v 0 0.05 -0.05
v 0 0.05 0
v 0 0.05 0.05
v 0 0.1 0
v 0 0.15 -0.05
v 0 0.15 0
v 0 0.15 0.05
v 0 0.2 0
v 0 0.25 -0.05
v 0 0.25 0
v 0 0.25 0.05
v 0 0.3 0
v 0 0.35 -0.05
v 0 0.35 0
v 0 0.35 0.05
v 0 0.4 0
v 0 0.45 -0.05
v 0 0.45 0
v 0 0.45 0.05
v 0 0.5 0
f 1 24 23
f 24 2 25
f 25 3 23
f 24 25 23
f 4 27 26
f 27 3 25
f 25 2 26
f 27 25 26
f 3 27 28
f 27 4 29
f 29 5 28
f 27 29 28
f 6 31 30
f 31 5 29
f 29 4 30
f 31 29 30
f 5 31 32
f 31 6 33
f 33 7 32
f 31 33 32
f 8 35 34
f 35 7 33
f 33 6 34
f 35 33 34
f 7 35 36
f 35 8 37
f 37 9 36
f 35 37 36
f 10 39 38
f 39 9 37
f 37 8 38
f 39 37 38
f 9 39 40
f 39 10 41
f 41 11 40
f 39 41 40
f 12 43 42
f 43 11 41
f 41 10 42
f 43 41 42
f 11 43 44
f 43 12 45
f 45 13 44
f 43 45 44
f 14 47 46
f 47 13 45
f 45 12 46
f 47 45 46
f 13 47 48
f 47 14 49
f 49 15 48
f 47 49 48
f 16 51 50
f 51 15 49
f 49 14 50
f 51 49 50
f 15 51 52
f 51 16 53
f 53 17 52
f 51 53 52
f 18 55 54
f 55 17 53
f 53 16 54
f 55 53 54
f 17 55 56
f 55 18 57
f 57 19 56
f 55 57 56
f 20 59 58
f 59 19 57
f 57 18 58
f 59 57 58
f 19 59 60
f 59 20 61
f 61 21 60
f 59 61 60
f 22 63 62
f 63 21 61
f 61 20 62
f 63 61 62
