/*--------------------------------*- C++ -*----------------------------------*\
  =========                 |
  \\      /  F ield         | OpenFOAM: The Open Source CFD Toolbox
   \\    /   O peration     | Website:  https://openfoam.org
    \\  /    A nd           | Version:  dev
     \\/     M anipulation  |
\*---------------------------------------------------------------------------*/
FoamFile
{
    format      ascii;
    class       volScalarField;
    location    "287";
    object      k;
}
// * * * * * * * * * * * * * * * * * * * * * * * * * * * * * * * * * * * * * //

dimensions      [0 2 -2 0 0 0 0];

internalField   nonuniform List<scalar>
12225
(
0.362828
0.34399
0.327753
0.309809
0.295412
0.283467
0.275529
0.270278
0.270336
0.271886
0.276044
0.280717
0.28984
0.295631
0.306778
0.312676
0.325686
0.323701
0.440271
0.468738
0.461616
0.44837
0.450343
0.458313
0.474575
0.498484
0.524413
0.55206
0.58073
0.606105
0.633775
0.653792
0.679642
0.692906
0.718009
0.72415
0.390407
0.41786
0.420244
0.41683
0.411634
0.407802
0.408019
0.410035
0.414564
0.421381
0.430716
0.439704
0.451145
0.461136
0.472781
0.483487
0.493441
0.505747
0.377043
0.387169
0.391466
0.391343
0.39026
0.387882
0.385662
0.384078
0.382883
0.382896
0.383354
0.384377
0.386267
0.388458
0.390892
0.394221
0.396511
0.40092
0.374434
0.376094
0.378427
0.378665
0.378275
0.3772
0.375489
0.373737
0.37201
0.370455
0.369255
0.368109
0.367378
0.366802
0.366439
0.366326
0.366343
0.366685
0.373779
0.372704
0.372659
0.372365
0.371773
0.370818
0.369554
0.368083
0.366572
0.364977
0.363528
0.362064
0.360755
0.359528
0.358397
0.357425
0.356436
0.355778
0.373775
0.37174
0.370388
0.369284
0.368235
0.367114
0.365915
0.364587
0.363239
0.361808
0.360423
0.359024
0.357679
0.356384
0.355122
0.353968
0.352795
0.351803
0.373818
0.371559
0.369635
0.367976
0.366501
0.365108
0.363776
0.36243
0.361108
0.359767
0.358451
0.357145
0.355865
0.354624
0.353403
0.352252
0.351101
0.350054
0.373832
0.371553
0.369449
0.367525
0.365777
0.364154
0.362645
0.361199
0.359818
0.358474
0.357171
0.355904
0.354669
0.353477
0.35231
0.351198
0.350099
0.349075
0.373831
0.37156
0.369418
0.367405
0.365529
0.363773
0.362133
0.360585
0.359122
0.357728
0.356395
0.355119
0.353889
0.352712
0.351571
0.350483
0.349422
0.348422
0.373829
0.37156
0.369413
0.367378
0.365458
0.363645
0.361937
0.360324
0.358799
0.357353
0.35598
0.354673
0.353425
0.352237
0.351096
0.35001
0.348961
0.34797
0.373828
0.371558
0.369409
0.36737
0.365439
0.363609
0.361876
0.360234
0.358678
0.357202
0.3558
0.354469
0.353201
0.351995
0.350843
0.349748
0.348696
0.347702
0.373827
0.371556
0.369405
0.367365
0.36543
0.363593
0.361851
0.360197
0.358626
0.357134
0.355716
0.354368
0.353085
0.351865
0.350701
0.349595
0.348536
0.347532
0.373826
0.371555
0.369401
0.367359
0.365422
0.363583
0.361837
0.360178
0.3586
0.357101
0.355674
0.354317
0.353025
0.351795
0.350622
0.349506
0.34844
0.347427
0.373826
0.371553
0.369398
0.367355
0.365416
0.363575
0.361826
0.360164
0.358584
0.357081
0.355651
0.35429
0.352993
0.351758
0.35058
0.349458
0.348388
0.347368
0.373826
0.371552
0.369396
0.367351
0.36541
0.363567
0.361817
0.360153
0.358571
0.357067
0.355634
0.35427
0.352971
0.351734
0.350554
0.349429
0.348356
0.347333
0.373825
0.371551
0.369394
0.367348
0.365406
0.363562
0.36181
0.360145
0.358561
0.357055
0.355621
0.354256
0.352955
0.351716
0.350534
0.349408
0.348333
0.347308
0.373825
0.371551
0.369393
0.367346
0.365403
0.363558
0.361805
0.360139
0.358554
0.357047
0.355612
0.354245
0.352943
0.351703
0.35052
0.349392
0.348316
0.347289
0.373825
0.37155
0.369393
0.367345
0.365402
0.363557
0.361804
0.360137
0.358552
0.357043
0.355607
0.35424
0.352938
0.351696
0.350513
0.349384
0.348307
0.34728
0.373825
0.371551
0.369393
0.367347
0.365404
0.363559
0.361806
0.360139
0.358554
0.357046
0.355611
0.354244
0.352941
0.3517
0.350516
0.349388
0.348311
0.347284
0.373825
0.371551
0.369395
0.367349
0.365407
0.363563
0.361811
0.360145
0.358562
0.357055
0.355621
0.354255
0.352954
0.351715
0.350533
0.349406
0.348332
0.347307
0.373826
0.371552
0.369397
0.367352
0.365412
0.363571
0.361822
0.360161
0.358583
0.357083
0.355656
0.354298
0.353006
0.351774
0.350602
0.349482
0.348416
0.347397
0.373826
0.371554
0.369399
0.367359
0.365428
0.363602
0.361875
0.36024
0.35869
0.35722
0.355823
0.354493
0.353226
0.352018
0.350865
0.349762
0.34871
0.3477
0.373828
0.371551
0.369412
0.367417
0.365556
0.363819
0.362189
0.360651
0.359189
0.357793
0.356456
0.355171
0.353935
0.352745
0.3516
0.350495
0.349435
0.348409
0.373823
0.371554
0.369604
0.367893
0.366339
0.364892
0.363495
0.362122
0.360761
0.359413
0.35808
0.356769
0.355488
0.354237
0.353028
0.351855
0.350733
0.349644
0.373781
0.37199
0.371113
0.370265
0.36936
0.368311
0.367048
0.365629
0.36412
0.362575
0.36103
0.359522
0.358073
0.356682
0.355381
0.354141
0.353009
0.351923
0.374297
0.375564
0.377778
0.377858
0.377291
0.375885
0.373835
0.371641
0.369505
0.367482
0.365664
0.364084
0.36271
0.361535
0.36061
0.359818
0.359289
0.358801
0.378732
0.394393
0.398293
0.396565
0.392558
0.387608
0.383641
0.380455
0.378266
0.376852
0.376497
0.376751
0.3774
0.378699
0.380445
0.382425
0.38483
0.387141
0.408344
0.427539
0.422424
0.411051
0.402227
0.397925
0.398558
0.401119
0.405989
0.413043
0.421001
0.429835
0.438843
0.448201
0.457317
0.466565
0.475334
0.484195
0.366033
0.353412
0.341988
0.33021
0.318982
0.308382
0.299409
0.291674
0.285403
0.280334
0.276682
0.273868
0.272311
0.271186
0.271177
0.271524
0.272158
0.273389
0.000540316
0.00317
0.00593247
0.00837131
0.0107055
0.0133367
0.0163967
0.0200518
0.0243917
0.0293913
0.0349473
0.04092
0.0471747
0.0535913
0.0600745
0.066546
0.0729474
0.0792325
0.0853667
0.0913217
0.0970685
0.102574
0.107786
0.112634
0.117009
0.12077
0.12372
0.125606
0.126071
0.124664
0.12071
0.113158
0.11614
0.120313
0.124761
0.128696
0.133063
0.137356
0.139629
0.143309
0.146249
0.147136
0.149075
0.159055
0.16482
0.173196
0.180567
0.188747
0.196791
0.20516
0.213615
0.222271
0.231067
0.240034
0.249154
0.258435
0.267871
0.277465
0.287212
0.297114
0.307166
0.317367
0.327712
0.338201
0.348827
0.359588
0.370477
0.381491
0.392621
0.403864
0.415211
0.426656
0.43819
0.449807
0.461494
0.473248
0.485054
0.496907
0.508791
0.520702
0.532624
0.544549
0.556462
0.568355
0.580211
0.592022
0.603768
0.615441
0.627021
0.638496
0.649845
0.661048
0.672083
0.682927
0.693558
0.703957
0.714118
0.724069
0.733897
0.743448
0.752792
0.761891
0.770749
0.779348
0.787681
0.795737
0.803506
0.810979
0.818145
0.824997
0.831525
0.837723
0.843581
0.849095
0.854255
0.859057
0.863493
0.867562
0.871256
0.874574
0.87751
0.880063
0.882226
0.884001
0.885384
0.886378
0.886977
0.887176
0.887037
0.886544
0.885599
0.884229
0.882452
0.880388
0.87801
0.875199
0.872055
0.868556
0.864717
0.860547
0.856054
0.851249
0.846142
0.840738
0.835047
0.82908
0.822848
0.816362
0.809633
0.802673
0.795495
0.788108
0.780528
0.772764
0.764831
0.756741
0.748507
0.740144
0.731667
0.723093
0.714452
0.705807
0.697555
0.691991
0.688075
0.684268
0.680432
0.676553
0.672637
0.668688
0.66471
0.660702
0.656661
0.652569
0.648392
0.64405
0.639386
0.633957
0.626879
0.600953
0.00278712
0.0116475
0.0177047
0.0222077
0.0261727
0.0300484
0.0341912
0.0388053
0.0439753
0.0496852
0.0558569
0.0623847
0.069161
0.0760887
0.0830876
0.0900932
0.0970563
0.10394
0.110718
0.117371
0.123879
0.130218
0.13635
0.14222
0.147741
0.152809
0.157293
0.161073
0.164096
0.166457
0.168563
0.171515
0.177904
0.185323
0.193313
0.201723
0.210568
0.219684
0.229473
0.240979
0.253537
0.266948
0.283399
0.296382
0.308282
0.321022
0.334089
0.347607
0.361448
0.375633
0.390133
0.404955
0.420091
0.435545
0.451315
0.467403
0.483808
0.500533
0.517576
0.534939
0.55262
0.570618
0.588931
0.607556
0.626491
0.645731
0.66527
0.685104
0.705224
0.725625
0.746296
0.76723
0.788415
0.80984
0.831493
0.853361
0.87543
0.897686
0.920112
0.942693
0.96541
0.988246
1.01118
1.0342
1.05727
1.08039
1.10352
1.12664
1.14972
1.17276
1.1957
1.21853
1.24121
1.2637
1.28597
1.30796
1.32962
1.35088
1.37166
1.39217
1.41236
1.43222
1.45174
1.47088
1.48963
1.50796
1.52586
1.54329
1.56025
1.57672
1.59266
1.60807
1.62292
1.6372
1.6509
1.66399
1.67646
1.6883
1.6995
1.71004
1.71991
1.7291
1.7376
1.7454
1.7525
1.75888
1.76456
1.76952
1.77378
1.77732
1.78015
1.78215
1.7833
1.78385
1.78386
1.78303
1.78152
1.7793
1.7764
1.77282
1.76858
1.76368
1.75814
1.75198
1.74521
1.73784
1.72989
1.72139
1.71234
1.70277
1.69269
1.68213
1.67111
1.65965
1.64777
1.6355
1.62285
1.60986
1.59654
1.58292
1.56904
1.55494
1.54077
1.52694
1.5133
1.49954
1.48566
1.47168
1.45763
1.44352
1.42937
1.41519
1.401
1.38678
1.37252
1.35819
1.34361
1.32878
1.31231
1.27566
0.00597869
0.0201587
0.0282606
0.0342697
0.0395885
0.0447634
0.0500989
0.0557719
0.0618623
0.0683732
0.0752566
0.082438
0.0898373
0.0973803
0.105005
0.112663
0.12032
0.127952
0.13555
0.14311
0.150634
0.158127
0.165586
0.173003
0.180358
0.187631
0.194808
0.201914
0.209047
0.216413
0.224348
0.233297
0.24361
0.254819
0.266728
0.279245
0.292341
0.306048
0.320497
0.33569
0.351534
0.368112
0.384908
0.401178
0.417518
0.434266
0.451419
0.468996
0.486978
0.505358
0.524129
0.543288
0.562833
0.582764
0.603079
0.623779
0.644865
0.666334
0.688188
0.710424
0.733041
0.756037
0.779407
0.803149
0.827257
0.851725
0.876547
0.901714
0.927219
0.953052
0.979201
1.00565
1.0324
1.05942
1.08671
1.11425
1.14201
1.16999
1.19816
1.2265
1.25499
1.28362
1.31235
1.34116
1.37003
1.39892
1.42783
1.4567
1.48553
1.51427
1.5429
1.57138
1.59968
1.62777
1.65562
1.68318
1.71044
1.73736
1.76394
1.79017
1.816
1.84141
1.86638
1.89087
1.91486
1.93831
1.96119
1.98349
2.00517
2.02621
2.04659
2.06627
2.08524
2.10347
2.12094
2.13764
2.15353
2.16862
2.18287
2.19627
2.20881
2.22047
2.23125
2.24112
2.25009
2.25814
2.26528
2.2715
2.2768
2.28117
2.2846
2.28706
2.28844
2.28899
2.28875
2.28754
2.28542
2.2824
2.2785
2.27374
2.26811
2.26166
2.25438
2.2463
2.23744
2.22781
2.21745
2.20638
2.19461
2.18217
2.16909
2.15539
2.14111
2.12626
2.11088
2.09499
2.07864
2.06183
2.04462
2.02703
2.00911
1.9909
1.97252
1.95421
1.93589
1.91744
1.89886
1.88016
1.86137
1.84252
1.82364
1.80475
1.78588
1.76705
1.74828
1.72959
1.71092
1.69239
1.67274
1.64088
0.00966988
0.0282556
0.0382721
0.0455755
0.0519418
0.058031
0.0641806
0.0705788
0.0773175
0.0844183
0.0918553
0.0995756
0.107517
0.115622
0.123841
0.132137
0.140488
0.148884
0.157328
0.165831
0.174417
0.183112
0.191944
0.20094
0.210121
0.21951
0.229131
0.239031
0.249284
0.26001
0.271358
0.283467
0.296393
0.310054
0.324385
0.339345
0.354908
0.37107
0.387848
0.405234
0.423183
0.441618
0.460367
0.479338
0.498615
0.518271
0.538336
0.55883
0.57976
0.601127
0.622933
0.645178
0.667862
0.690986
0.714551
0.738558
0.763006
0.787897
0.813229
0.839002
0.865214
0.891863
0.918945
0.946456
0.974391
1.00274
1.03151
1.06068
1.09023
1.12018
1.15049
1.18116
1.21217
1.2435
1.27515
1.30709
1.3393
1.37177
1.40446
1.43736
1.47044
1.50368
1.53704
1.57051
1.60405
1.63763
1.67122
1.70479
1.73831
1.77174
1.80506
1.83821
1.87118
1.90392
1.93641
1.96861
2.00048
2.032
2.06313
2.09384
2.1241
2.15385
2.18308
2.21175
2.23981
2.26724
2.29401
2.32007
2.3454
2.36997
2.39374
2.41669
2.4388
2.46003
2.48035
2.49976
2.51821
2.5357
2.5522
2.56769
2.58216
2.59559
2.60797
2.61929
2.62953
2.63868
2.64676
2.65374
2.65964
2.66444
2.66812
2.67068
2.67199
2.67234
2.67167
2.6699
2.66706
2.66317
2.65824
2.65229
2.64535
2.63742
2.62853
2.61871
2.60797
2.59635
2.58386
2.57054
2.55642
2.54152
2.52587
2.50951
2.49247
2.47477
2.45646
2.43757
2.41813
2.39818
2.37776
2.3569
2.33566
2.3141
2.29231
2.27042
2.24845
2.22633
2.20406
2.18166
2.15918
2.13664
2.1141
2.09158
2.06912
2.04678
2.0246
2.00267
1.98103
1.95987
1.9381
1.90877
0.0134001
0.0358586
0.0476387
0.056132
0.0634255
0.0702789
0.0770742
0.0840241
0.0912421
0.0987732
0.106616
0.11474
0.123102
0.131661
0.140377
0.149226
0.158194
0.167279
0.176492
0.185857
0.195403
0.205169
0.215196
0.225526
0.236196
0.24724
0.258691
0.270585
0.282966
0.295888
0.309411
0.323582
0.338421
0.353913
0.37004
0.386781
0.40412
0.422048
0.440564
0.45965
0.479281
0.499408
0.519985
0.540984
0.562411
0.58428
0.606605
0.629398
0.652668
0.676421
0.700662
0.725395
0.750622
0.776345
0.802569
0.829293
0.856521
0.884253
0.912489
0.94123
0.970474
1.00022
1.03047
1.06121
1.09244
1.12415
1.15634
1.189
1.22212
1.25569
1.28969
1.32411
1.35893
1.39414
1.42972
1.46564
1.5019
1.53845
1.57528
1.61236
1.64966
1.68716
1.72482
1.76261
1.80049
1.83844
1.87642
1.91439
1.95232
1.99016
2.02789
2.06545
2.10281
2.13994
2.17679
2.21332
2.2495
2.28527
2.32061
2.35546
2.38978
2.42354
2.45669
2.48919
2.52101
2.55209
2.5824
2.61191
2.64057
2.66835
2.69523
2.72115
2.74609
2.77003
2.79293
2.81476
2.83551
2.85514
2.87363
2.89097
2.90713
2.9221
2.93585
2.94839
2.9597
2.96977
2.97859
2.98617
2.9925
2.99758
3.00139
3.0039
3.00504
3.0051
3.00392
3.00152
2.9979
2.99309
2.9871
2.97996
2.97169
2.96231
2.95185
2.94032
2.92777
2.91422
2.8997
2.88425
2.86789
2.85066
2.83259
2.81373
2.7941
2.77375
2.75271
2.73102
2.70873
2.68587
2.66249
2.63863
2.61435
2.5897
2.56478
2.53967
2.5144
2.48897
2.46338
2.43766
2.41186
2.38602
2.36019
2.33441
2.30876
2.2833
2.25812
2.23334
2.20911
2.18561
2.16191
2.13318
0.0169705
0.0427805
0.0561468
0.0657242
0.0738523
0.0813751
0.0887164
0.096115
0.103707
0.111561
0.1197
0.128117
0.136789
0.145689
0.154792
0.164081
0.173551
0.183206
0.193062
0.203144
0.213488
0.224132
0.235121
0.246498
0.258304
0.270576
0.283344
0.296637
0.31048
0.324899
0.339918
0.355556
0.371823
0.388716
0.406231
0.424357
0.443086
0.462409
0.482321
0.50281
0.523864
0.545463
0.567588
0.590226
0.613373
0.63703
0.661204
0.6859
0.711127
0.736892
0.7632
0.790059
0.817473
0.845446
0.873983
0.903087
0.932762
0.96301
0.993833
1.02523
1.05721
1.08976
1.12288
1.15658
1.19084
1.22566
1.26103
1.29695
1.33341
1.37038
1.40787
1.44585
1.4843
1.52321
1.56256
1.60232
1.64246
1.68297
1.72381
1.76496
1.80638
1.84803
1.8899
1.93192
1.97408
2.01633
2.05863
2.10094
2.14321
2.18541
2.22749
2.2694
2.3111
2.35255
2.39369
2.43448
2.47487
2.51481
2.55425
2.59314
2.63144
2.66911
2.70608
2.74232
2.77777
2.8124
2.84616
2.87901
2.9109
2.94179
2.97165
3.00043
3.02811
3.05464
3.08
3.10415
3.12706
3.14872
3.1691
3.18816
3.2059
3.22229
3.23732
3.25097
3.26324
3.27411
3.28358
3.29165
3.29832
3.30358
3.30743
3.30979
3.31071
3.31037
3.30863
3.30553
3.30108
3.2953
3.28821
3.27983
3.2702
3.25934
3.24728
3.23406
3.21969
3.20422
3.18768
3.17011
3.15154
3.13202
3.11159
3.09028
3.06813
3.04519
3.02151
2.99712
2.97207
2.9464
2.92017
2.89343
2.86623
2.83862
2.81069
2.78252
2.75414
2.72558
2.69684
2.66798
2.63905
2.61008
2.58115
2.55232
2.52367
2.49528
2.46728
2.43983
2.41312
2.38734
2.36165
2.3323
0.0202493
0.0489
0.063649
0.0741841
0.0830503
0.0911593
0.0989698
0.106743
0.114635
0.122736
0.13109
0.139713
0.1486
0.157741
0.167123
0.176741
0.186593
0.19669
0.20705
0.217699
0.22867
0.240003
0.251738
0.263916
0.276575
0.289749
0.303467
0.317751
0.33262
0.348089
0.364171
0.380874
0.398204
0.41616
0.434743
0.453947
0.473768
0.494202
0.515245
0.536892
0.559137
0.581973
0.605391
0.629387
0.653958
0.679105
0.704831
0.731143
0.758047
0.785551
0.813664
0.842392
0.871742
0.901722
0.932336
0.963591
0.995492
1.02804
1.06125
1.09511
1.12963
1.16481
1.20064
1.23714
1.27428
1.31207
1.3505
1.38956
1.42924
1.46953
1.51041
1.55187
1.59388
1.63643
1.67949
1.72304
1.76705
1.81148
1.85632
1.90151
1.94704
1.99285
2.03891
2.08518
2.13162
2.17817
2.2248
2.27146
2.3181
2.36466
2.41111
2.45738
2.50342
2.54918
2.59461
2.63965
2.68424
2.72833
2.77187
2.81479
2.85704
2.89858
2.93935
2.97929
3.01836
3.0565
3.09366
3.1298
3.16487
3.19881
3.2316
3.26318
3.29353
3.32259
3.35034
3.37674
3.40175
3.42536
3.44754
3.46825
3.48749
3.50522
3.52144
3.53612
3.54926
3.56085
3.57088
3.57936
3.58628
3.59164
3.59545
3.5976
3.59824
3.59741
3.59505
3.59119
3.58584
3.57903
3.57078
3.56113
3.5501
3.53773
3.52404
3.50908
3.49288
3.47547
3.45691
3.43722
3.41646
3.39466
3.37187
3.34814
3.3235
3.29802
3.27173
3.24469
3.21694
3.18853
3.15952
3.12996
3.09991
3.06943
3.03858
3.00745
2.97607
2.94449
2.91273
2.88085
2.8489
2.81693
2.78503
2.75326
2.72171
2.69051
2.6598
2.62976
2.6006
2.57251
2.54469
2.5139
0.0231439
0.054141
0.0700553
0.0814055
0.090903
0.0995128
0.10772
0.115804
0.123937
0.132225
0.140732
0.149492
0.15852
0.167818
0.177387
0.187231
0.197356
0.207774
0.218506
0.229578
0.241021
0.25287
0.265161
0.277931
0.291213
0.305039
0.319434
0.334418
0.350007
0.366214
0.383047
0.400512
0.418615
0.437358
0.456741
0.476765
0.497429
0.518732
0.540674
0.563255
0.586474
0.610329
0.634821
0.659948
0.685712
0.712118
0.739169
0.766872
0.795237
0.824272
0.853985
0.884387
0.915487
0.947293
0.979813
1.01306
1.04703
1.08174
1.11718
1.15338
1.19032
1.22802
1.26646
1.30566
1.3456
1.38629
1.42771
1.46985
1.51272
1.55628
1.60052
1.64543
1.69099
1.73717
1.78394
1.83128
1.87915
1.92753
1.97637
2.02563
2.07529
2.12528
2.17557
2.22611
2.27686
2.32775
2.37874
2.42977
2.4808
2.53175
2.58258
2.63322
2.68362
2.7337
2.78342
2.83271
2.8815
2.92973
2.97734
3.02427
3.07046
3.11585
3.16038
3.20399
3.24662
3.28823
3.32875
3.36812
3.40631
3.44325
3.4789
3.51322
3.54616
3.57767
3.60773
3.6363
3.66334
3.68881
3.7127
3.73498
3.75562
3.77461
3.79192
3.80754
3.82147
3.83368
3.84419
3.85299
3.86007
3.86545
3.86913
3.87102
3.87129
3.8699
3.86684
3.86215
3.85584
3.84795
3.8385
3.82752
3.81505
3.80113
3.78578
3.76906
3.75101
3.73166
3.71106
3.68925
3.6663
3.64223
3.61711
3.59098
3.56389
3.5359
3.50705
3.4774
3.447
3.41592
3.38419
3.35188
3.31906
3.28577
3.25209
3.21809
3.18381
3.14932
3.11464
3.07984
3.04498
3.01012
2.97534
2.94073
2.9064
2.87247
2.83911
2.80653
2.77493
2.74448
2.71443
2.68203
0.0255978
0.058476
0.0753322
0.0873461
0.0973599
0.10638
0.114912
0.123245
0.131564
0.139989
0.148599
0.157442
0.166548
0.175935
0.185614
0.195597
0.205896
0.216527
0.227513
0.238876
0.250647
0.262856
0.275536
0.288718
0.302432
0.316706
0.331563
0.347021
0.363097
0.379802
0.397146
0.415137
0.43378
0.453081
0.473042
0.493668
0.514962
0.536928
0.559568
0.582886
0.606886
0.631572
0.656949
0.683021
0.709793
0.737273
0.765468
0.794388
0.824043
0.854444
0.885602
0.91753
0.950237
0.983736
1.01804
1.05315
1.08909
1.12585
1.16345
1.2019
1.24119
1.28134
1.32234
1.36419
1.4069
1.45044
1.49483
1.54004
1.58607
1.6329
1.68051
1.72889
1.778
1.82782
1.87832
1.92947
1.98124
2.03358
2.08645
2.13982
2.19362
2.24782
2.30237
2.3572
2.41227
2.46752
2.52288
2.5783
2.63371
2.68904
2.74425
2.79925
2.85397
2.90836
2.96233
3.01583
3.06877
3.12109
3.17273
3.22361
3.27366
3.32283
3.37105
3.41825
3.46437
3.50935
3.55312
3.59564
3.63684
3.67667
3.71508
3.75202
3.78744
3.8213
3.85356
3.88417
3.91311
3.94033
3.96582
3.98954
4.01147
4.03159
4.04988
4.06633
4.08093
4.09367
4.10454
4.11355
4.1207
4.12601
4.12945
4.13102
4.13081
4.12879
4.12497
4.11938
4.11206
4.10302
4.09231
4.07997
4.06602
4.05052
4.0335
4.015
3.99508
3.97379
3.95116
3.92725
3.90212
3.87582
3.8484
3.81991
3.79041
3.75997
3.72862
3.69643
3.66346
3.62977
3.59541
3.56044
3.52492
3.48892
3.45251
3.41574
3.37869
3.34139
3.30392
3.26632
3.22866
3.19102
3.15348
3.11614
3.07912
3.04255
3.00662
2.97154
2.9375
2.90466
2.87232
2.83819
0.0275813
0.0619124
0.0794942
0.0920194
0.102431
0.111769
0.120548
0.129069
0.137521
0.146037
0.154704
0.163584
0.172719
0.182137
0.19186
0.201906
0.212293
0.223041
0.234173
0.245712
0.257684
0.270118
0.283041
0.296482
0.310466
0.325019
0.34016
0.35591
0.372285
0.389298
0.406962
0.425285
0.444278
0.463948
0.484303
0.50535
0.527097
0.549551
0.572719
0.59661
0.621233
0.646594
0.672704
0.699571
0.727205
0.755617
0.784818
0.814822
0.84564
0.877288
0.909779
0.943128
0.977349
1.01245
1.04846
1.08537
1.12321
1.16198
1.20169
1.24235
1.28396
1.32654
1.37008
1.41458
1.46004
1.50646
1.55382
1.60212
1.65134
1.70146
1.75246
1.80432
1.85702
1.91051
1.96477
2.01977
2.07545
2.13177
2.1887
2.24617
2.30414
2.36256
2.42135
2.48047
2.53985
2.59942
2.65912
2.71888
2.77863
2.83829
2.8978
2.95708
3.01606
3.07465
3.13278
3.19038
3.24736
3.30366
3.35919
3.41389
3.46767
3.52048
3.57223
3.62286
3.67231
3.72049
3.76736
3.81285
3.8569
3.89944
3.94043
3.97982
4.01754
4.05357
4.08785
4.12034
4.151
4.17981
4.20672
4.23172
4.25478
4.27588
4.295
4.31212
4.32725
4.34036
4.35147
4.36057
4.36767
4.37278
4.3759
4.37704
4.37627
4.37353
4.36887
4.36232
4.35391
4.34369
4.33168
4.31793
4.30249
4.28539
4.26668
4.24641
4.22464
4.20141
4.17679
4.15081
4.12355
4.09506
4.0654
4.03463
4.0028
3.96998
3.93622
3.90159
3.86614
3.82995
3.79306
3.75554
3.71746
3.67887
3.63985
3.60046
3.56076
3.52081
3.48068
3.44042
3.40011
3.35982
3.31966
3.27971
3.24012
3.20102
3.16261
3.12508
3.08864
3.05342
3.01876
2.9827
0.0290904
0.0644891
0.0825932
0.0954838
0.106178
0.115739
0.12469
0.133333
0.141866
0.150425
0.159107
0.167981
0.177099
0.186499
0.196211
0.20626
0.216667
0.227455
0.238645
0.25026
0.262324
0.274863
0.287902
0.301466
0.315579
0.330264
0.345541
0.361431
0.37795
0.395117
0.412944
0.431447
0.450637
0.470527
0.491129
0.512454
0.534514
0.557321
0.580888
0.605226
0.630348
0.656266
0.682996
0.710551
0.738945
0.768194
0.798311
0.829315
0.861222
0.894049
0.927815
0.962535
0.998226
1.03491
1.07259
1.11129
1.15102
1.19179
1.23362
1.27651
1.32047
1.36551
1.41162
1.45881
1.50707
1.5564
1.60679
1.65821
1.71067
1.76413
1.81857
1.87396
1.93028
1.98748
2.04552
2.10437
2.16398
2.2243
2.28527
2.34683
2.40894
2.47152
2.53451
2.59785
2.66146
2.72527
2.78921
2.85319
2.91715
2.98101
3.04468
3.10808
3.17113
3.23374
3.29584
3.35734
3.41815
3.4782
3.5374
3.59568
3.65295
3.70915
3.76419
3.818
3.87051
3.92165
3.97135
4.01954
4.06617
4.11117
4.15448
4.19605
4.23583
4.27376
4.30981
4.34393
4.37608
4.40623
4.43435
4.46041
4.48438
4.50625
4.52599
4.5436
4.55907
4.5724
4.58358
4.59261
4.59952
4.6043
4.60698
4.60757
4.60614
4.6026
4.59701
4.58942
4.57989
4.56843
4.55509
4.53992
4.52296
4.50427
4.48389
4.46187
4.43828
4.41317
4.3866
4.35862
4.32931
4.29871
4.26691
4.23394
4.19989
4.16481
4.12877
4.09183
4.05405
4.01549
3.97623
3.93632
3.89582
3.85481
3.81335
3.7715
3.72933
3.68691
3.64429
3.60155
3.55876
3.516
3.47337
3.43098
3.38897
3.34747
3.30668
3.26681
3.22803
3.19049
3.15354
3.1155
0.0301444
0.0662733
0.0847102
0.0978308
0.108699
0.118392
0.127436
0.136138
0.144696
0.153252
0.161908
0.17074
0.179808
0.189154
0.198811
0.20881
0.219174
0.229928
0.241092
0.252692
0.264749
0.277288
0.290332
0.303904
0.318028
0.332726
0.34802
0.363927
0.380471
0.39767
0.415543
0.434109
0.453385
0.473387
0.494132
0.515636
0.537916
0.56099
0.584875
0.609585
0.635137
0.661549
0.68884
0.717031
0.74614
0.776188
0.807194
0.83918
0.872166
0.906174
0.941225
0.977338
1.01453
1.05282
1.09223
1.13277
1.17446
1.21731
1.26134
1.30654
1.35294
1.40052
1.4493
1.49927
1.55043
1.60276
1.65626
1.7109
1.76667
1.82353
1.88147
1.94044
2.00041
2.06134
2.12318
2.18589
2.2494
2.31367
2.37862
2.44421
2.51036
2.577
2.64407
2.71147
2.77915
2.84701
2.91499
2.98298
3.05092
3.11871
3.18626
3.2535
3.32033
3.38666
3.4524
3.51747
3.58177
3.64523
3.70774
3.76924
3.82964
3.88885
3.9468
4.00341
4.05861
4.11232
4.16448
4.215
4.26384
4.31092
4.35619
4.39958
4.44106
4.48056
4.51804
4.55347
4.58679
4.61798
4.647
4.67383
4.69844
4.72081
4.74094
4.7588
4.77439
4.78771
4.79877
4.80756
4.8141
4.81841
4.82051
4.82043
4.81825
4.81378
4.80719
4.79852
4.78779
4.77507
4.76038
4.74378
4.72532
4.70506
4.68304
4.65933
4.63398
4.60706
4.57863
4.54876
4.5175
4.48493
4.45111
4.4161
4.37998
4.3428
4.30464
4.26556
4.22562
4.1849
4.14345
4.10135
4.05864
4.01541
3.97172
3.92763
3.88322
3.83854
3.79366
3.74865
3.70359
3.65857
3.61369
3.56905
3.52479
3.48107
3.43806
3.39598
3.35498
3.31521
3.27606
3.23611
0.0307852
0.0673438
0.0859436
0.0991704
0.11011
0.119849
0.128912
0.13761
0.146145
0.154659
0.163257
0.172016
0.180995
0.190243
0.199798
0.209694
0.219957
0.230611
0.241681
0.253189
0.265157
0.277609
0.290568
0.304057
0.318101
0.332725
0.347956
0.363806
0.380299
0.397458
0.415306
0.433865
0.453157
0.473205
0.494032
0.515663
0.538132
0.561453
0.585646
0.610729
0.63672
0.663631
0.691495
0.720343
0.750201
0.781094
0.813049
0.84609
0.880242
0.915531
0.951978
0.989605
1.02843
1.06848
1.10977
1.15231
1.19612
1.24121
1.2876
1.33529
1.38429
1.4346
1.48621
1.53913
1.59333
1.64881
1.70554
1.76351
1.82269
1.88305
1.94454
2.00713
2.07078
2.13543
2.20103
2.26753
2.33486
2.40297
2.47178
2.54122
2.61122
2.6817
2.75259
2.8238
2.89524
2.96684
3.0385
3.11014
3.18166
3.25298
3.324
3.39463
3.46478
3.53436
3.60326
3.67141
3.7387
3.80505
3.87036
3.93456
3.99756
4.05926
4.1196
4.17849
4.23586
4.29162
4.34572
4.39807
4.44862
4.49729
4.54403
4.58879
4.63151
4.67213
4.71062
4.74693
4.78102
4.81285
4.84241
4.86966
4.89457
4.91714
4.93734
4.95517
4.97062
4.98369
4.99439
5.00273
5.00872
5.01238
5.01375
5.01292
5.00982
5.00435
4.99669
4.98687
4.97493
4.96092
4.94488
4.92688
4.90695
4.88517
4.86158
4.83626
4.80926
4.78065
4.75049
4.71885
4.68581
4.65143
4.61577
4.57891
4.54091
4.50185
4.46179
4.4208
4.37894
4.33629
4.2929
4.24885
4.2042
4.15901
4.11335
4.06729
4.02089
3.97422
3.92735
3.88034
3.83328
3.78625
3.73935
3.6927
3.64643
3.6007
3.55568
3.51155
3.4685
3.42665
3.38545
3.34373
0.0309946
0.0677278
0.086363
0.0995971
0.110524
0.120235
0.129259
0.137902
0.146368
0.154798
0.163304
0.17197
0.180855
0.190005
0.199458
0.209247
0.219399
0.22994
0.240895
0.252285
0.264134
0.276465
0.289302
0.302669
0.316592
0.331093
0.346198
0.36193
0.37832
0.395396
0.413187
0.431722
0.451031
0.47114
0.492077
0.513871
0.536546
0.560134
0.584659
0.610148
0.636631
0.664125
0.692675
0.722318
0.753082
0.784996
0.818091
0.852397
0.887943
0.924755
0.962856
1.00227
1.04301
1.0851
1.12856
1.1734
1.21963
1.26727
1.31632
1.36679
1.41867
1.47196
1.52666
1.58275
1.64021
1.69902
1.75915
1.82058
1.88327
1.94718
2.01226
2.07846
2.14574
2.21403
2.28327
2.35341
2.42436
2.49607
2.56845
2.64142
2.71492
2.78885
2.86314
2.93769
3.01241
3.08723
3.16203
3.23674
3.31126
3.38549
3.45935
3.53273
3.60553
3.67767
3.74905
3.81958
3.88916
3.9577
4.0251
4.09129
4.15618
4.21967
4.2817
4.34218
4.40103
4.45818
4.51355
4.56708
4.6187
4.66835
4.71597
4.7615
4.80488
4.84608
4.88505
4.92173
4.9561
4.98813
5.01778
5.04502
5.06985
5.09223
5.11216
5.12963
5.14464
5.15719
5.16729
5.17495
5.18018
5.18302
5.18351
5.18182
5.17766
5.17111
5.16232
5.15131
5.13814
5.12286
5.1055
5.08614
5.06482
5.04161
5.01657
4.98976
4.96125
4.9311
4.8994
4.8662
4.83157
4.7956
4.75834
4.71987
4.68026
4.63958
4.59789
4.55527
4.51179
4.4675
4.42248
4.37679
4.3305
4.28367
4.23637
4.18865
4.14059
4.09226
4.04371
3.99501
3.94626
3.89753
3.84892
3.80055
3.75255
3.70506
3.65826
3.61234
3.56744
3.52372
3.48066
3.43737
0.0309322
0.0676521
0.0862233
0.0994025
0.110272
0.119919
0.128867
0.137425
0.145796
0.154124
0.162514
0.171045
0.179779
0.188766
0.198044
0.207651
0.217617
0.227969
0.23873
0.249927
0.261583
0.273724
0.286374
0.299562
0.313314
0.327662
0.342635
0.358269
0.374597
0.391651
0.409468
0.428082
0.447525
0.467832
0.489034
0.511167
0.534267
0.558381
0.583528
0.609732
0.637009
0.665404
0.694974
0.725754
0.757783
0.791097
0.825732
0.861725
0.899116
0.937919
0.978157
1.01985
1.06301
1.10764
1.15377
1.2014
1.25054
1.30119
1.35335
1.40701
1.46218
1.51882
1.57693
1.63647
1.69743
1.75977
1.82345
1.88843
1.95466
2.0221
2.09069
2.16037
2.23108
2.30276
2.37534
2.44875
2.52291
2.59775
2.67318
2.74913
2.82552
2.90225
2.97924
3.0564
3.13364
3.21087
3.288
3.36494
3.44158
3.51784
3.59362
3.66883
3.74336
3.81714
3.89005
3.96202
4.03294
4.10273
4.1713
4.23856
4.30442
4.3688
4.43163
4.49282
4.5523
4.60999
4.66582
4.71973
4.77165
4.82152
4.86928
4.91488
4.95826
4.99938
5.0382
5.07467
5.10875
5.14043
5.16966
5.19643
5.22072
5.24251
5.26178
5.27854
5.29279
5.30452
5.31375
5.32049
5.32476
5.3266
5.32613
5.3234
5.31807
5.3104
5.30045
5.28825
5.27387
5.25735
5.23875
5.21812
5.19552
5.17102
5.14468
5.11657
5.08675
5.05529
5.02228
4.98777
4.95183
4.91455
4.87599
4.83622
4.79532
4.75335
4.71038
4.66648
4.62172
4.57617
4.52988
4.48293
4.43538
4.38728
4.33871
4.28973
4.24039
4.19077
4.14092
4.09092
4.04085
3.99077
3.94081
3.89105
3.84164
3.79272
3.74445
3.69701
3.65053
3.6052
3.56052
3.51593
0.0307295
0.0673267
0.0857124
0.0987342
0.109446
0.11893
0.127709
0.136092
0.144282
0.152422
0.160618
0.16895
0.177483
0.18627
0.195354
0.204767
0.214538
0.224697
0.235269
0.246284
0.257769
0.269753
0.282269
0.295349
0.309027
0.323341
0.338326
0.354021
0.370465
0.3877
0.405771
0.42473
0.444619
0.46547
0.487322
0.51021
0.534163
0.559179
0.585334
0.612697
0.641336
0.671304
0.702631
0.735348
0.769493
0.805099
0.842194
0.880802
0.920936
0.962626
1.0059
1.05078
1.09726
1.14533
1.19499
1.24624
1.29908
1.35348
1.40944
1.46693
1.52593
1.58641
1.64834
1.71167
1.77637
1.84239
1.90968
1.97819
2.04786
2.11863
2.19045
2.26324
2.33694
2.41148
2.48679
2.56279
2.63941
2.71656
2.79418
2.87217
2.95046
3.02897
3.10759
3.18626
3.26488
3.34337
3.42163
3.49957
3.57711
3.65416
3.73061
3.80639
3.88141
3.95556
4.02876
4.10092
4.17196
4.24178
4.31031
4.37745
4.44312
4.50724
4.56975
4.63056
4.6896
4.7468
4.80208
4.85539
4.90666
4.95583
5.00285
5.04767
5.09024
5.13051
5.16844
5.20399
5.23712
5.26782
5.29605
5.32178
5.34501
5.36572
5.38389
5.39953
5.41264
5.42323
5.43129
5.43684
5.43991
5.44055
5.43905
5.43503
5.42848
5.41962
5.40847
5.39509
5.37953
5.36183
5.34207
5.32028
5.29655
5.27092
5.24347
5.21426
5.18337
5.15085
5.11679
5.08126
5.04433
5.00606
4.96653
4.92582
4.88398
4.8411
4.79723
4.75245
4.70681
4.6604
4.61325
4.56545
4.51706
4.46812
4.4187
4.36887
4.31867
4.26818
4.21745
4.16655
4.11554
4.06452
4.01358
3.96281
3.91235
3.86234
3.81292
3.76427
3.71652
3.66985
3.62384
3.57825
0.030319
0.0666392
0.0847357
0.0975232
0.108012
0.117276
0.125839
0.134011
0.141994
0.149932
0.157931
0.166072
0.174419
0.183025
0.191932
0.201178
0.210799
0.220825
0.231289
0.242224
0.253666
0.265653
0.278222
0.291414
0.305275
0.319856
0.335215
0.351388
0.36842
0.38636
0.405245
0.425095
0.445944
0.467886
0.490992
0.515323
0.54094
0.567929
0.596324
0.626174
0.657534
0.69045
0.724952
0.761067
0.798821
0.838232
0.879311
0.922064
0.966497
1.0126
1.06039
1.10979
1.16081
1.21343
1.26763
1.3234
1.3807
1.4395
1.49975
1.56143
1.62449
1.68888
1.75456
1.82146
1.88955
1.95876
2.02905
2.10034
2.17258
2.24571
2.31967
2.39439
2.46981
2.54586