/*--------------------------------*- C++ -*----------------------------------*\
  =========                 |
  \\      /  F ield         | OpenFOAM: The Open Source CFD Toolbox
   \\    /   O peration     | Website:  https://openfoam.org
    \\  /    A nd           | Version:  dev
     \\/     M anipulation  |
\*---------------------------------------------------------------------------*/
FoamFile
{
    format      ascii;
    class       volScalarField;
    location    "287";
    object      nut;
}
// * * * * * * * * * * * * * * * * * * * * * * * * * * * * * * * * * * * * * //

dimensions      [0 2 -1 0 0 0 0];

internalField   nonuniform List<scalar>
12225
(
4.14969e-05
3.93414e-05
3.74842e-05
3.54319e-05
3.37853e-05
3.24192e-05
3.15114e-05
3.09108e-05
3.09171e-05
3.10971e-05
3.15674e-05
3.21127e-05
3.31458e-05
3.38006e-05
3.51028e-05
3.56701e-05
3.75759e-05
3.56957e-05
0.000332329
0.000215221
0.000179281
0.00015768
0.000146209
0.000138213
0.000132759
0.00013163
0.000129529
0.000130045
0.000129063
0.000129424
0.000128672
0.000128542
0.000128089
0.0001274
0.000127392
0.000126522
0.000674967
0.000450837
0.000355785
0.000309833
0.000275296
0.000251094
0.000231722
0.00021727
0.000202702
0.000192112
0.000182641
0.00017521
0.000169395
0.000163693
0.00016032
0.000155594
0.000153829
0.000149935
0.000833618
0.000684899
0.000572001
0.000499957
0.000449475
0.000411943
0.000380795
0.000355992
0.000334031
0.00031478
0.000298353
0.000281725
0.000270333
0.000256103
0.000248238
0.000236221
0.000230459
0.00022055
0.000861255
0.000802526
0.00074214
0.000676566
0.000624015
0.000581363
0.000545887
0.000514551
0.000489538
0.000464436
0.000445882
0.000424095
0.000409966
0.000390847
0.000379938
0.000363171
0.000354561
0.000339655
0.00085498
0.000840347
0.000822209
0.000786486
0.000750874
0.000715893
0.000685773
0.000656132
0.000632561
0.000607528
0.000589014
0.000567272
0.000552311
0.000533142
0.000520832
0.000503815
0.000493399
0.000477638
0.000852908
0.000850685
0.00084424
0.000832828
0.000817416
0.000796998
0.000777893
0.00075674
0.000738907
0.000719157
0.000703546
0.000685642
0.000672146
0.000655961
0.00064435
0.000629603
0.000619592
0.000605282
0.000851923
0.000851813
0.000850173
0.000847394
0.000841454
0.000833728
0.000824898
0.000813418
0.000802811
0.000790478
0.000779723
0.000767555
0.000757441
0.000745811
0.000736571
0.00072558
0.000717214
0.000706133
0.000851751
0.000851542
0.000851035
0.000850338
0.000848881
0.000846168
0.000843035
0.000838306
0.000833404
0.000827365
0.000821222
0.000814781
0.00080842
0.000801542
0.000795262
0.000788448
0.00078221
0.000775319
0.000851769
0.000851389
0.000851046
0.000850633
0.000850248
0.000849368
0.000848405
0.000846781
0.000844957
0.000842532
0.000839926
0.000836804
0.0008338
0.000830162
0.000826981
0.000822943
0.00081992
0.000815328
0.000851787
0.000851359
0.000851012
0.000850613
0.000850329
0.000849905
0.000849526
0.000848929
0.000848303
0.000847394
0.000846467
0.000845179
0.000843993
0.000842356
0.000841001
0.00083904
0.000837649
0.000835375
0.000851789
0.000851359
0.000850995
0.000850605
0.000850291
0.000849938
0.000849646
0.00084928
0.000848955
0.000848505
0.000848099
0.000847509
0.000846999
0.000846246
0.000845644
0.000844724
0.000844062
0.000842981
0.000851786
0.000851363
0.000850985
0.000850604
0.000850269
0.000849926
0.00084963
0.000849313
0.000849042
0.000848729
0.000848462
0.000848127
0.000847844
0.000847467
0.000847157
0.000846727
0.000846388
0.000845904
0.000851783
0.000851364
0.000850978
0.000850602
0.000850256
0.000849916
0.000849607
0.0008493
0.000849022
0.000848741
0.000848488
0.000848224
0.000847989
0.000847735
0.000847508
0.000847258
0.000847033
0.000846783
0.000851781
0.000851364
0.000850972
0.000850598
0.000850246
0.000849908
0.000849591
0.000849286
0.000849
0.000848723
0.000848463
0.000848211
0.000847975
0.000847745
0.000847527
0.000847316
0.000847114
0.000846918
0.00085178
0.000851363
0.000850969
0.000850594
0.000850239
0.000849901
0.00084958
0.000849274
0.000848984
0.000848707
0.000848443
0.000848191
0.000847951
0.000847721
0.000847502
0.000847292
0.000847092
0.0008469
0.000851779
0.000851362
0.000850967
0.000850591
0.000850234
0.000849894
0.000849572
0.000849265
0.000848973
0.000848694
0.000848428
0.000848174
0.000847932
0.000847701
0.00084748
0.000847268
0.000847066
0.000846873
0.000851779
0.000851362
0.000850965
0.000850588
0.00085023
0.00084989
0.000849567
0.000849258
0.000848965
0.000848685
0.000848418
0.000848163
0.000847919
0.000847686
0.000847464
0.000847251
0.000847047
0.000846853
0.000851779
0.000851362
0.000850965
0.000850588
0.000850229
0.000849889
0.000849565
0.000849256
0.000848962
0.000848681
0.000848413
0.000848157
0.000847913
0.000847679
0.000847456
0.000847242
0.000847037
0.000846842
0.000851779
0.000851362
0.000850965
0.000850589
0.000850231
0.000849891
0.000849567
0.000849259
0.000848965
0.000848684
0.000848416
0.000848161
0.000847916
0.000847683
0.000847459
0.000847245
0.000847039
0.000846843
0.000851779
0.000851363
0.000850967
0.000850592
0.000850235
0.000849896
0.000849573
0.000849266
0.000848972
0.000848693
0.000848423
0.000848168
0.000847919
0.000847682
0.00084745
0.00084723
0.000847011
0.000846805
0.000851778
0.000851366
0.000850968
0.000850599
0.00085024
0.000849907
0.00084958
0.000849274
0.000848964
0.000848671
0.000848364
0.000848071
0.000847755
0.000847454
0.000847122
0.00084681
0.000846455
0.000846134
0.000851777
0.000851374
0.000850971
0.000850615
0.00085024
0.000849889
0.000849478
0.000849053
0.000848529
0.000847977
0.0008473
0.000846603
0.000845765
0.000844938
0.000843953
0.000843027
0.000841915
0.000840937
0.000851802
0.00085141
0.00085097
0.000850549
0.00084986
0.000848967
0.000847607
0.000845979
0.000843902
0.000841634
0.000838953
0.000836212
0.000833114
0.00083011
0.000826759
0.000823676
0.000820179
0.000817172
0.000852138
0.000851403
0.000850234
0.000848252
0.000844472
0.000839355
0.000832711
0.000825762
0.000817912
0.000809998
0.000801612
0.000793623
0.000785326
0.0007777
0.000769736
0.000762692
0.000755114
0.000748785
0.000854142
0.000847718
0.000840125
0.000827122
0.000808707
0.000789646
0.00076997
0.000751414
0.0007333
0.00071689
0.000700927
0.000686773
0.000672821
0.000660661
0.000648368
0.000637929
0.000626941
0.000618007
0.00085497
0.000818336
0.000776229
0.000726634
0.000684937
0.000649855
0.000618457
0.000592018
0.000568376
0.000548305
0.000529681
0.000513985
0.00049874
0.000486007
0.000473191
0.000462697
0.00045161
0.000442792
0.000807487
0.000666879
0.000570551
0.000509853
0.000465647
0.000431192
0.00040413
0.000382497
0.000364189
0.000349061
0.000335935
0.000325071
0.000314473
0.00030624
0.000297954
0.00029136
0.000284273
0.000278923
0.000501854
0.000348404
0.00029269
0.000259173
0.000236321
0.000221176
0.000211542
0.000204014
0.000198479
0.000195058
0.000192217
0.000190366
0.000188581
0.000187438
0.000186163
0.000185473
0.000184553
0.000184141
7.27285e-05
7.02231e-05
6.79539e-05
6.56136e-05
6.33827e-05
6.12765e-05
5.94929e-05
5.79573e-05
5.67103e-05
5.5703e-05
5.49775e-05
5.44185e-05
5.41086e-05
5.38874e-05
5.38766e-05
5.39623e-05
5.40719e-05
5.43225e-05
1.68859e-07
4.52627e-06
8.46619e-06
1.19393e-05
1.52604e-05
1.89935e-05
2.3327e-05
2.84951e-05
3.46229e-05
4.16697e-05
4.94869e-05
5.78752e-05
6.66473e-05
7.56398e-05
8.47297e-05
9.38222e-05
0.000102854
0.000111778
0.000120559
0.000129156
0.000137498
0.000145478
0.00015291
0.000159539
0.000165007
0.000168897
0.000170686
0.000169707
0.000165149
0.000156509
0.000142723
2.88488e-05
2.96021e-05
3.10806e-05
3.28931e-05
3.42256e-05
3.62733e-05
3.83496e-05
3.93223e-05
4.18498e-05
4.50591e-05
4.73057e-05
4.79756e-05
4.93973e-05
5.02618e-05
5.14525e-05
5.25013e-05
5.36426e-05
5.47376e-05
5.58554e-05
5.69586e-05
5.8065e-05
5.91654e-05
6.02641e-05
6.13589e-05
6.24507e-05
6.35391e-05
6.46241e-05
6.57056e-05
6.67835e-05
6.78576e-05
6.89278e-05
6.99938e-05
7.10552e-05
7.21119e-05
7.31635e-05
7.42095e-05
7.52498e-05
7.62836e-05
7.73109e-05
7.83308e-05
7.93432e-05
8.03472e-05
8.13428e-05
8.2329e-05
8.33056e-05
8.42717e-05
8.52271e-05
8.6171e-05
8.71031e-05
8.80224e-05
8.89288e-05
8.98214e-05
9.06998e-05
9.15631e-05
9.24111e-05
9.32427e-05
9.40576e-05
9.48547e-05
9.56338e-05
9.63936e-05
9.7133e-05
9.7851e-05
9.85464e-05
9.92182e-05
9.98655e-05
0.000100488
0.000101089
0.000101675
0.000102235
0.000102774
0.000103291
0.000103786
0.000104258
0.000104707
0.000105133
0.000105535
0.000105914
0.000106269
0.000106599
0.000106905
0.000107186
0.000107443
0.000107674
0.000107881
0.000108062
0.000108218
0.000108348
0.000108453
0.000108533
0.000108588
0.000108617
0.00010862
0.000108598
0.000108551
0.000108479
0.000108381
0.000108259
0.000108114
0.000107947
0.000107752
0.000107531
0.000107284
0.000107018
0.000106733
0.000106419
0.000106085
0.000105729
0.000105351
0.000104952
0.000104533
0.000104093
0.000103634
0.000103156
0.000102659
0.000102144
0.000101612
0.000101062
0.000100496
9.99146e-05
9.93177e-05
9.87061e-05
9.80806e-05
9.74418e-05
9.67903e-05
9.61267e-05
9.54518e-05
9.47663e-05
9.4071e-05
9.33668e-05
9.26554e-05
9.19398e-05
9.12379e-05
9.0693e-05
9.02797e-05
8.98752e-05
8.9468e-05
8.90566e-05
8.86417e-05
8.82232e-05
8.78016e-05
8.73765e-05
8.6948e-05
8.65146e-05
8.60741e-05
8.5621e-05
8.5145e-05
8.46163e-05
8.3975e-05
8.20555e-05
8.71402e-07
2.44255e-05
5.56001e-05
7.72982e-05
9.10658e-05
0.000100242
0.000107639
0.000114875
0.000122742
0.000131492
0.000141076
0.000151312
0.000161977
0.000172866
0.000183807
0.000194663
0.000205321
0.000215677
0.00022562
0.000235003
0.000243613
0.000251135
0.000257111
0.000260912
0.000261726
0.000258581
0.000250426
0.000236333
0.000215888
0.000189653
0.000159685
0.000129654
0.000134121
0.000141865
0.000151292
0.000162314
0.000176292
0.000190127
0.000203715
0.000219086
0.000234054
0.000246561
0.00026479
0.000271775
0.000278187
0.000285014
0.00029259
0.000300299
0.000308297
0.000316388
0.000324615
0.000332927
0.000341332
0.000349817
0.000358384
0.000367029
0.000375754
0.000384559
0.000393446
0.000402414
0.000411465
0.0004206
0.000429819
0.000439122
0.000448509
0.00045798
0.000467533
0.000477166
0.000486878
0.000496667
0.000506528
0.00051646
0.000526458
0.000536519
0.000546638
0.00055681
0.00056703
0.000577292
0.000587592
0.000597922
0.000608279
0.000618654
0.000629042
0.000639437
0.000649833
0.000660223
0.000670602
0.000680964
0.000691305
0.000701619
0.0007119
0.000722139
0.000732323
0.000742431
0.000752429
0.000762258
0.000771808
0.000780899
0.00078924
0.000797559
0.000805721
0.000813756
0.000821649
0.0008294
0.000837001
0.000844447
0.000851732
0.00085885
0.000865798
0.000872569
0.00087916
0.000885565
0.00089178
0.000897801
0.000903624
0.000909245
0.00091466
0.000919866
0.00092486
0.000929639
0.000934201
0.000938542
0.000942662
0.000946555
0.000950223
0.000953664
0.00095688
0.000959868
0.000962617
0.000965155
0.000967528
0.000969587
0.000971277
0.000972783
0.000974211
0.000975314
0.000976198
0.000976852
0.000977277
0.000977477
0.000977454
0.00097721
0.000976749
0.000976076
0.000975193
0.000974105
0.000972815
0.000971327
0.000969647
0.000967777
0.000965725
0.000963493
0.000961087
0.000958513
0.000955776
0.000952881
0.000949833
0.000946638
0.000943299
0.000939816
0.00093618
0.000932329
0.000927941
0.000921803
0.000914425
0.000906639
0.000898681
0.000890621
0.00088249
0.000874302
0.000866065
0.000857784
0.000849459
0.000841081
0.000832628
0.000824046
0.000815185
0.000805804
0.00079439
0.000764218
1.86942e-06
4.10319e-05
8.92777e-05
0.000125819
0.000152198
0.000171277
0.00018575
0.000197753
0.000208749
0.000219598
0.000230702
0.000242168
0.000253939
0.000265891
0.000277884
0.000289787
0.000301486
0.000312872
0.000323834
0.000334234
0.000343879
0.000352491
0.000359679
0.000364922
0.000367593
0.000367047
0.000362796
0.000354776
0.00034366
0.0003312
0.000320467
0.000315856
0.000327712
0.000344107
0.000362755
0.000382991
0.000404345
0.000425459
0.000446373
0.00046695
0.000486921
0.000507044
0.000525827
0.000541597
0.000557159
0.000572861
0.0005889
0.000605138
0.0006216
0.000638228
0.000655023
0.000671964
0.000689052
0.000706281
0.000723653
0.000741166
0.000758823
0.000776623
0.000794568
0.000812658
0.000830893
0.000849275
0.000867803
0.000886477
0.000905293
0.000924248
0.000943339
0.000962562
0.000981911
0.00100138
0.00102096
0.00104065
0.00106044
0.00108031
0.00110027
0.0011203
0.00114038
0.00116052
0.00118069
0.00120089
0.0012211
0.00124131
0.00126151
0.00128169
0.00130184
0.00132193
0.00134196
0.00136191
0.00138177
0.00140152
0.00142114
0.00144061
0.0014599
0.00147897
0.00149775
0.0015162
0.00153422
0.00155173
0.00156879
0.00158563
0.00160219
0.00161848
0.00163446
0.00165015
0.00166551
0.00168055
0.00169524
0.00170958
0.00172356
0.00173717
0.0017504
0.00176323
0.00177566
0.00178769
0.0017993
0.00181049
0.00182124
0.00183156
0.00184143
0.00185085
0.00185982
0.00186833
0.00187637
0.00188394
0.00189104
0.00189767
0.00190382
0.0019095
0.00191471
0.00191946
0.00192384
0.00192765
0.00193069
0.00193334
0.00193571
0.00193753
0.00193887
0.00193973
0.00194012
0.00194005
0.00193952
0.00193854
0.00193711
0.00193525
0.00193295
0.00193023
0.0019271
0.00192357
0.00191964
0.00191532
0.00191062
0.00190556
0.00190014
0.00189438
0.00188828
0.00188186
0.00187512
0.00186809
0.00186076
0.00185315
0.00184523
0.00183691
0.00182786
0.00181715
0.00180503
0.0017922
0.00177898
0.0017655
0.00175183
0.001738
0.00172405
0.00170997
0.00169577
0.00168144
0.00166693
0.00165213
0.00163678
0.00162015
0.00159943
0.00155513
3.02462e-06
5.38716e-05
0.000115274
0.000163014
0.000198103
0.000224071
0.00024398
0.000260206
0.000274448
0.000287804
0.000300897
0.000314012
0.000327224
0.000340496
0.000353745
0.000366881
0.000379824
0.000392512
0.000404895
0.000416929
0.000428561
0.000439705
0.000450229
0.000459944
0.000468608
0.000475978
0.000481904
0.000486489
0.000490286
0.000494485
0.000500922
0.000511758
0.000528509
0.000548085
0.000569227
0.000591392
0.00061417
0.000637153
0.000660233
0.000683443
0.000706696
0.00073001
0.000752942
0.00077557
0.000798212
0.000820979
0.000843939
0.000867089
0.000890438
0.000913978
0.000937707
0.000961623
0.000985725
0.00101001
0.00103449
0.00105915
0.00108401
0.00110905
0.0011343
0.00115973
0.00118536
0.00121118
0.00123719
0.00126339
0.00128976
0.00131631
0.00134303
0.00136992
0.00139696
0.00142414
0.00145145
0.00147889
0.00150644
0.00153409
0.00156183
0.00158963
0.00161749
0.0016454
0.00167333
0.00170126
0.00172919
0.00175709
0.00178495
0.00181275
0.00184047
0.00186809
0.00189558
0.00192294
0.00195013
0.00197714
0.00200393
0.00203047
0.00205674
0.00208268
0.00210826
0.00213341
0.00215809
0.00218231
0.0022061
0.00222954
0.0022526
0.00227526
0.00229752
0.00231934
0.00234072
0.00236164
0.00238208
0.00240203
0.00242148
0.00244041
0.00245881
0.00247666
0.00249396
0.00251069
0.00252684
0.0025424
0.00255736
0.00257172
0.00258546
0.00259857
0.00261106
0.00262291
0.00263411
0.00264466
0.00265456
0.0026638
0.00267239
0.00268032
0.00268759
0.00269428
0.00270048
0.00270571
0.00271001
0.00271388
0.00271718
0.00271978
0.00272172
0.002723
0.00272363
0.00272362
0.00272297
0.0027217
0.00271982
0.00271733
0.00271424
0.00271056
0.00270631
0.0027015
0.00269614
0.00269023
0.0026838
0.00267686
0.00266942
0.0026615
0.00265311
0.00264426
0.00263498
0.00262527
0.00261514
0.00260462
0.00259367
0.00258222
0.00257
0.00255649
0.00254174
0.00252618
0.00251009
0.00249361
0.00247683
0.00245981
0.00244258
0.00242516
0.00240757
0.00238979
0.00237184
0.00235358
0.00233466
0.00231414
0.00228872
0.00224221
4.19213e-06
6.46976e-05
0.000137104
0.000194149
0.000236887
0.000268916
0.000293611
0.000313588
0.000330752
0.000346397
0.000361326
0.000375981
0.000390564
0.000405132
0.000419671
0.000434144
0.000448517
0.000462776
0.000476931
0.000491016
0.000505077
0.000519169
0.000533333
0.00054759
0.000561928
0.000576312
0.000590713
0.000605167
0.000619869
0.000635259
0.000652037
0.000670878
0.000691922
0.000714462
0.000738052
0.000762461
0.000787535
0.000813163
0.000839324
0.000866033
0.000893242
0.000920839
0.000948651
0.000976392
0.00100427
0.00103234
0.0010606
0.00108907
0.00111775
0.00114665
0.00117576
0.00120508
0.00123463
0.00126438
0.00129434
0.00132453
0.00135494
0.00138557
0.00141643
0.00144751
0.00147881
0.00151033
0.00154205
0.00157398
0.00160611
0.00163843
0.00167092
0.00170359
0.00173642
0.0017694
0.00180251
0.00183574
0.00186907
0.00190249
0.00193599
0.00196954
0.00200312
0.00203673
0.00207033
0.00210392
0.00213746
0.00217094
0.00220434
0.00223763
0.0022708
0.00230381
0.00233665
0.0023693
0.00240172
0.00243389
0.00246578
0.00249736
0.0025286
0.00255946
0.00258992
0.00261996
0.00264956
0.00267871
0.00270741
0.00273568
0.00276349
0.00279083
0.00281768
0.00284401
0.00286982
0.00289508
0.00291977
0.00294388
0.00296739
0.00299029
0.00301256
0.00303418
0.00305515
0.00307544
0.00309505
0.00311396
0.00313216
0.00314965
0.00316641
0.00318243
0.0031977
0.00321222
0.00322598
0.00323897
0.00325119
0.00326263
0.00327329
0.00328318
0.00329231
0.00330086
0.00330856
0.00331522
0.00332085
0.00332604
0.00333042
0.00333401
0.00333681
0.00333884
0.00334009
0.00334058
0.00334033
0.00333932
0.00333759
0.00333513
0.00333196
0.00332809
0.00332353
0.00331829
0.0033124
0.00330585
0.00329867
0.00329087
0.00328247
0.00327349
0.00326393
0.00325382
0.00324318
0.00323201
0.00322034
0.00320818
0.00319551
0.00318227
0.00316831
0.00315332
0.00313732
0.0031205
0.00310308
0.00308519
0.00306691
0.00304832
0.00302945
0.00301034
0.00299101
0.00297147
0.0029517
0.00293158
0.0029108
0.0028884
0.00286115
0.00281702
5.3098e-06
7.38203e-05
0.000155505
0.000220575
0.000270158
0.000307722
0.00033685
0.000360343
0.000380282
0.000398129
0.000414848
0.000431029
0.000446996
0.000462906
0.000478822
0.000494762
0.000510739
0.000526774
0.000542911
0.00055922
0.000575787
0.000592712
0.000610097
0.000628027
0.000646568
0.000665756
0.000685601
0.000706114
0.000727329
0.000749349
0.000772358
0.000796514
0.000821813
0.000848084
0.000875178
0.000902999
0.000931478
0.000960565
0.000990236
0.00102048
0.00105123
0.00108241
0.0011139
0.00114561
0.00117754
0.0012097
0.00124209
0.0012747
0.00130753
0.00134058
0.00137387
0.00140738
0.00144112
0.00147511
0.00150933
0.00154379
0.00157848
0.00161339
0.00164852
0.00168388
0.00171944
0.00175522
0.0017912
0.00182737
0.00186373
0.00190027
0.00193698
0.00197385
0.00201086
0.002048
0.00208525
0.00212261
0.00216006
0.00219758
0.00223514
0.00227275
0.00231036
0.00234798
0.00238556
0.00242311
0.00246058
0.00249798
0.00253526
0.0025724
0.0026094
0.00264621
0.00268282
0.00271921
0.00275533
0.00279118
0.00282672
0.00286193
0.00289677
0.00293123
0.00296527
0.00299887
0.00303203
0.00306473
0.00309695
0.00312869
0.00315993
0.00319065
0.00322083
0.00325045
0.00327949
0.00330793
0.00333575
0.00336293
0.00338946
0.00341531
0.00344048
0.00346494
0.00348868
0.00351168
0.00353394
0.00355543
0.00357615
0.00359608
0.00361521
0.00363354
0.00365105
0.00366773
0.00368357
0.00369857
0.00371273
0.00372603
0.00373848
0.00375007
0.00376091
0.00377107
0.00378015
0.00378817
0.00379522
0.00380167
0.00380723
0.00381192
0.00381574
0.00381871
0.00382083
0.00382211
0.00382256
0.00382219
0.00382101
0.00381903
0.00381626
0.00381272
0.00380841
0.00380335
0.00379756
0.00379104
0.00378381
0.00377589
0.0037673
0.00375804
0.00374814
0.00373762
0.00372649
0.00371477
0.00370248
0.00368962
0.0036762
0.00366218
0.00364747
0.0036319
0.00361547
0.00359827
0.00358044
0.00356208
0.00354328
0.00352411
0.00350461
0.00348483
0.0034648
0.00344455
0.00342409
0.00340332
0.003382
0.00335921
0.00333212
0.00329209
6.33634e-06
8.13788e-05
0.000170813
0.00024285
0.000298592
0.000341277
0.0003746
0.00040149
0.000424163
0.000444219
0.000462764
0.000480522
0.000497934
0.000515256
0.000532629
0.000550129
0.000567809
0.00058572
0.000603923
0.000622496
0.000641531
0.00066113
0.000681393
0.000702411
0.000724257
0.000746973
0.000770573
0.000795054
0.000820403
0.000846615
0.000873704
0.000901678
0.000930508
0.000960126
0.000990465
0.00102147
0.00105308
0.00108527
0.001118
0.00115123
0.00118493
0.00121903
0.00125346
0.00128819
0.00132318
0.00135842
0.0013939
0.0014296
0.00146553
0.00150169
0.00153807
0.00157467
0.00161151
0.00164857
0.00168586
0.00172337
0.0017611
0.00179904
0.00183719
0.00187555
0.00191412
0.00195288
0.00199183
0.00203096
0.00207026
0.00210973
0.00214935
0.00218911
0.00222901
0.00226901
0.00230913
0.00234932
0.00238959
0.00242992
0.00247028
0.00251067
0.00255105
0.00259142
0.00263175
0.00267202
0.00271221
0.0027523
0.00279227
0.00283209
0.00287175
0.00291122
0.00295047
0.00298948
0.00302822
0.00306668
0.00310482
0.00314262
0.00318005
0.00321709
0.00325372
0.00328992
0.00332567
0.00336094
0.00339574
0.00343003
0.00346379
0.00349702
0.00352968
0.00356176
0.00359323
0.00362407
0.00365426
0.00368379
0.00371263
0.00374077
0.00376819
0.00379486
0.00382078
0.00384593
0.0038703
0.00389386
0.00391661
0.00393853
0.00395961
0.00397985
0.00399922
0.00401772
0.00403533
0.00405207
0.0040679
0.00408283
0.00409687
0.00411001
0.00412246
0.00413393
0.00414441
0.00415376
0.00416224
0.00416993
0.0041767
0.00418255
0.00418748
0.00419151
0.00419464
0.00419689
0.00419826
0.00419876
0.0041984
0.00419719
0.00419514
0.00419227
0.00418859
0.00418411
0.00417884
0.00417279
0.00416599
0.00415845
0.00415018
0.0041412
0.00413153
0.00412118
0.00411017
0.00409852
0.00408625
0.00407336
0.00405988
0.00404576
0.00403098
0.00401544
0.00399913
0.00398209
0.00396443
0.0039462
0.0039275
0.00390838
0.00388889
0.0038691
0.00384905
0.00382878
0.00380832
0.00378764
0.00376653
0.00374423
0.00371834
0.00368244
7.24269e-06
8.74878e-05
0.000183284
0.000261325
0.000322578
0.000369999
0.000407308
0.000437508
0.000462905
0.00048521
0.000505643
0.000525044
0.000543962
0.000562745
0.000581607
0.000600681
0.000620059
0.000639814
0.000660014
0.000680731
0.000702047
0.000724046
0.00074681
0.000770413
0.000794937
0.000820394
0.000846788
0.000874106
0.000902321
0.0009314
0.000961312
0.000992022
0.00102349
0.00105566
0.0010885
0.00112194
0.00115595
0.00119049
0.00122551
0.00126098
0.00129687
0.00133314
0.00136975
0.00140665
0.00144383
0.00148126
0.00151893
0.00155682
0.00159492
0.00163323
0.00167175
0.00171048
0.00174942
0.00178857
0.00182792
0.00186747
0.00190722
0.00194717
0.0019873
0.00202762
0.00206813
0.00210881
0.00214967
0.00219069
0.00223187
0.00227319
0.00231466
0.00235625
0.00239796
0.00243978
0.00248169
0.00252368
0.00256574
0.00260785
0.00264999
0.00269215
0.00273431
0.00277645
0.00281856
0.00286061
0.00290259
0.00294447
0.00298624
0.00302787
0.00306933
0.00311062
0.00315169
0.00319254
0.00323313
0.00327344
0.00331345
0.00335313
0.00339245
0.0034314
0.00346996
0.00350809
0.00354578
0.003583
0.00361975
0.00365599
0.00369171
0.00372687
0.00376147
0.00379548
0.00382887
0.00386162
0.00389372
0.00392514
0.00395586
0.00398586
0.00401512
0.00404363
0.00407137
0.00409831
0.00412445
0.00414977
0.00417425
0.00419788
0.00422065
0.00424254
0.00426354
0.00428365
0.00430285
0.00432113
0.00433848
0.00435491
0.00437039
0.00438503
0.00439887
0.00441165
0.00442348
0.00443416
0.00444403
0.00445298
0.00446097
0.00446802
0.00447412
0.00447929
0.00448354
0.00448687
0.00448929
0.00449081
0.00449144
0.00449119
0.00449008
0.00448811
0.0044853
0.00448166
0.0044772
0.00447193
0.00446588
0.00445905
0.00445146
0.00444313
0.00443407
0.00442429
0.00441383
0.00440268
0.00439088
0.00437843
0.00436535
0.00435162
0.00433723
0.00432213
0.00430632
0.00428983
0.0042727
0.00425501
0.0042368
0.00421815
0.0041991
0.00417973
0.00416008
0.00414023
0.00412023
0.00410009
0.00407967
0.00405833
0.00403415
0.00400279
8.01117e-06
9.22606e-05
0.000193145
0.000276283
0.000342413
0.000394179
0.000435256
0.000468665
0.000496767
0.000521348
0.00054372
0.000564815
0.000585276
0.000605531
0.000625859
0.000646444
0.000667417
0.000688903
0.000710938
0.000733578
0.000756886
0.000780921
0.000805731
0.000831343
0.000857834
0.000885256
0.000913615
0.000942893
0.000973059
0.00100407
0.00103589
0.00106848
0.00110178
0.00113575
0.00117035
0.00120553
0.00124125
0.00127746
0.00131413
0.00135121
0.00138864
0.00142633
0.00146431
0.00150258
0.00154115
0.00157997
0.001619
0.00165823
0.00169764
0.00173724
0.00177702
0.00181698
0.00185712
0.00189743
0.00193792
0.00197859
0.00201943
0.00206045
0.00210163
0.00214298
0.00218449
0.00222617
0.002268
0.00230998
0.00235211
0.00239439
0.0024368
0.00247933
0.00252199
0.00256475
0.00260761
0.00265056
0.00269359
0.00273668
0.00277982
0.00282299
0.00286619
0.00290938
0.00295257
0.00299572
0.00303882
0.00308185
0.00312479
0.00316761
0.00321031
0.00325285
0.00329521
0.00333736
0.00337929
0.00342097
0.00346237
0.00350348
0.00354426
0.00358469
0.00362474
0.0036644
0.00370363
0.00374242
0.00378075
0.00381858
0.00385589
0.00389267
0.00392888
0.00396451
0.00399952
0.0040339
0.00406763
0.00410067
0.00413302
0.00416464
0.00419552
0.00422564
0.00425498
0.00428352
0.00431124
0.00433813
0.00436418
0.00438936
0.00441366
0.00443707
0.00445958
0.00448117
0.00450184
0.00452158
0.00454037
0.00455821
0.00457509
0.00459117
0.00460627
0.00462038
0.00463353
0.00464559
0.0046568
0.00466703
0.00467628
0.00468455
0.00469187
0.00469824
0.00470367
0.00470817
0.00471173
0.00471439
0.00471613
0.00471698
0.00471695
0.00471604
0.00471428
0.00471166
0.00470821
0.00470394
0.00469886
0.00469298
0.00468632
0.0046789
0.00467073
0.00466182
0.00465219
0.00464187
0.00463085
0.00461917
0.00460682
0.00459382
0.00458016
0.00456581
0.00455079
0.0045351
0.00451878
0.00450188
0.00448445
0.00446654
0.00444823
0.00442957
0.00441063
0.0043915
0.00437225
0.00435292
0.00433344
0.00431331
0.00429101
0.00426402
8.63243e-06
9.58069e-05
0.000200597
0.000288059
0.000358349
0.000414067
0.00045867
0.000495158
0.000525912
0.000552765
0.000577094
0.0005999
0.000621908
0.000643638
0.000665381
0.000687324
0.000709574
0.000732197
0.000755411
0.00077931
0.000803957
0.0008294
0.000855685
0.000882865
0.000910956
0.000939962
0.000969863
0.00100062
0.00103221
0.00106458
0.0010977
0.00113152
0.00116599
0.00120107
0.00123672
0.00127289
0.00130954
0.00134663
0.00138411
0.00142196
0.00146016
0.00149871
0.00153755
0.00157664
0.00161589
0.00165533
0.00169494
0.00173469
0.00177458
0.00181461
0.00185478
0.0018951
0.00193556
0.00197617
0.00201693
0.00205784
0.00209889
0.0021401
0.00218147
0.00222298
0.00226466
0.00230649
0.00234847
0.00239062
0.00243291
0.00247536
0.00251796
0.0025607
0.00260359
0.0026466
0.00268975
0.00273301
0.00277638
0.00281985
0.00286341
0.00290705
0.00295074
0.00299448
0.00303826
0.00308204
0.00312582
0.00316958
0.00321329
0.00325694
0.00330049
0.00334394
0.00338725
0.00343041
0.00347338
0.00351614
0.00355867
0.00360094
0.00364292
0.00368458
0.00372591
0.00376687
0.00380743
0.00384758
0.00388728
0.00392651
0.00396524
0.00400345
0.00404111
0.0040782
0.00411468
0.00415054
0.00418576
0.00422029
0.00425413
0.00428726
0.00431964
0.00435126
0.00438209
0.00441213
0.00444134
0.00446972
0.00449725
0.0045239
0.00454967
0.00457454
0.00459849
0.00462152
0.00464362
0.00466477
0.00468496
0.00470419
0.00472248
0.00473987
0.00475627
0.00477173
0.0047862
0.00479967
0.00481223
0.00482376
0.00483429
0.00484384
0.00485242
0.00486005
0.00486672
0.00487245
0.00487725
0.00488112
0.00488408
0.00488614
0.0048873
0.00488758
0.00488699
0.00488555
0.00488326
0.00488014
0.0048762
0.00487146
0.00486592
0.00485961
0.00485253
0.00484471
0.00483615
0.00482688
0.0048169
0.00480622
0.00479488
0.00478286
0.00477017
0.00475682
0.00474279
0.00472811
0.00471281
0.00469691
0.00468046
0.00466353
0.00464616
0.00462843
0.00461041
0.0045922
0.00457389
0.00455556
0.00453717
0.00451834
0.0044979
0.00447448
9.10517e-06
9.82542e-05
0.000205882
0.000296892
0.000370691
0.000429928
0.000477775
0.000517168
0.000550472
0.000579542
0.00060583
0.000630298
0.000653644
0.000676303
0.000698849
0.000721612
0.000744815
0.000768661
0.000793206
0.000818458
0.000844454
0.000871228
0.000898813
0.000927228
0.000956467
0.000986499
0.00101731
0.0010489
0.00108123
0.00111426
0.00114797
0.00118231
0.00121723
0.00125269
0.00128866
0.00132508
0.00136192
0.00139914
0.0014367
0.00147458
0.00151274
0.00155115
0.00158978
0.0016286
0.00166771
0.00170703
0.00174644
0.0017859
0.00182542
0.00186502
0.00190471
0.00194451
0.00198442
0.00202446
0.00206462
0.00210491
0.00214535
0.00218593
0.00222667
0.00226757
0.00230864
0.00234988
0.00239131
0.00243292
0.00247472
0.0025167
0.00255888
0.00260126
0.00264382
0.00268657
0.0027295
0.00277261
0.0028159
0.00285934
0.00290294
0.00294668
0.00299054
0.00303452
0.0030786
0.00312275
0.00316697
0.00321122
0.0032555
0.00329977
0.00334401
0.0033882
0.00343232
0.00347633
0.00352021
0.00356393
0.00360747
0.00365079
0.00369386
0.00373667
0.00377917
0.00382134
0.00386315
0.00390457
0.00394557
0.00398613
0.00402621
0.00406578
0.00410483
0.00414331
0.00418121
0.0042185
0.00425514
0.00429112
0.00432641
0.00436099
0.00439483
0.00442791
0.00446021
0.00449171
0.00452239
0.00455222
0.0045812
0.00460931
0.00463652
0.00466283
0.00468822
0.00471268
0.0047362
0.00475876
0.00478035
0.00480098
0.00482065
0.00483937
0.00485711
0.00487394
0.00488978
0.00490465
0.00491863
0.00493149
0.00494333
0.00495421
0.00496411
0.00497305
0.00498104
0.00498808
0.00499418
0.00499936
0.00500362
0.00500697
0.00500943
0.00501101
0.00501172
0.00501157
0.00501057
0.00500874
0.00500609
0.00500263
0.00499838
0.00499334
0.00498753
0.00498097
0.00497367
0.00496564
0.00495689
0.00494744
0.00493729
0.00492647
0.00491497
0.0049028
0.00488997
0.00487648
0.00486236
0.00484764
0.00483236
0.00481656
0.00480032
0.00478368
0.00476675
0.00474962
0.0047324
0.00471518
0.00469797
0.00468048
0.0046618
0.00464137
9.43554e-06
9.97438e-05
0.000209242
0.000303005
0.000379722
0.000442029
0.000492807
0.000534907
0.000570584
0.000601576
0.000629203
0.000654753
0.00067913
0.000703058
0.000726919
0.000750948
0.000775345
0.000800238
0.000825662
0.000851719
0.000878463
0.000905929
0.000934137
0.00096309
0.000992784
0.0010232
0.00105431
0.00108609
0.0011185
0.00115153
0.00118513
0.00121927
0.00125391
0.00128901
0.00132453
0.00136041
0.00139664
0.00143317
0.00146998
0.00150703
0.00154428
0.00158167
0.00161927
0.00165718
0.00169537
0.0017336
0.00177187
0.00181016
0.00184839
0.00188665
0.00192496
0.00196335
0.00200183