/*--------------------------------*- C++ -*----------------------------------*\
  =========                 |
  \\      /  F ield         | OpenFOAM: The Open Source CFD Toolbox
   \\    /   O peration     | Website:  https://openfoam.org
    \\  /    A nd           | Version:  dev
     \\/     M anipulation  |
\*---------------------------------------------------------------------------*/
FoamFile
{
    format      ascii;
    class       surfaceScalarField;
    location    "287";
    object      phi;
}
// * * * * * * * * * * * * * * * * * * * * * * * * * * * * * * * * * * * * * //

dimensions      [0 3 -1 0 0 0 0];

internalField   nonuniform List<scalar>
24170
(
3.12889e-06
5.95163e-08
3.04664e-06
8.22485e-08
2.97355e-06
7.30908e-08
2.90491e-06
6.86362e-08
2.8406e-06
6.43184e-08
2.78329e-06
5.73087e-08
2.73398e-06
4.93065e-08
2.69205e-06
4.19304e-08
2.6564e-06
3.56451e-08
2.626e-06
3.04088e-08
2.59985e-06
2.6148e-08
2.57713e-06
2.27218e-08
2.55717e-06
1.99522e-08
2.53944e-06
1.77382e-08
2.52353e-06
1.59074e-08
2.50864e-06
1.48881e-08
2.49514e-06
1.34985e-08
1.75215e-08
2.47762e-06
3.45314e-06
2.36251e-08
3.45702e-06
7.83688e-08
3.45055e-06
7.95594e-08
3.4391e-06
8.00884e-08
3.42432e-06
7.90927e-08
3.40708e-06
7.45542e-08
3.38787e-06
6.85149e-08
3.36736e-06
6.24428e-08
3.34623e-06
5.67749e-08
3.32507e-06
5.15692e-08
3.30436e-06
4.68522e-08
3.28439e-06
4.26931e-08
3.26535e-06
3.89918e-08
3.24728e-06
3.58055e-08
3.2303e-06
3.28959e-08
3.21428e-06
3.08996e-08
3.19958e-06
2.81997e-08
2.9216e-08
3.18789e-06
3.66826e-06
1.78799e-08
3.67919e-06
6.74414e-08
3.68543e-06
7.33236e-08
3.68947e-06
7.60428e-08
3.69107e-06
7.74891e-08
3.69012e-06
7.5512e-08
3.68699e-06
7.16411e-08
3.68216e-06
6.72701e-08
3.67603e-06
6.29088e-08
3.66891e-06
5.86852e-08
3.6611e-06
5.46708e-08
3.65282e-06
5.09635e-08
3.64429e-06
4.75276e-08
3.63565e-06
4.44426e-08
3.62699e-06
4.15546e-08
3.61863e-06
3.9259e-08
3.61013e-06
3.67042e-08
3.56441e-08
3.6037e-06
3.92587e-06
1.7394e-08
3.93592e-06
5.73924e-08
3.94258e-06
6.66703e-08
3.94812e-06
7.04957e-08
3.95254e-06
7.30677e-08
3.9555e-06
7.25546e-08
3.95718e-06
6.99602e-08
3.95783e-06
6.6622e-08
3.95763e-06
6.31044e-08
3.95674e-06
5.9576e-08
3.95529e-06
5.61219e-08
3.95341e-06
5.28508e-08
3.95117e-06
4.97586e-08
3.9487e-06
4.69132e-08
3.94603e-06
4.42266e-08
3.94339e-06
4.18997e-08
3.94055e-06
3.95493e-08
3.76618e-08
3.93853e-06
4.20819e-06
1.63263e-08
4.21599e-06
4.95982e-08
4.22169e-06
6.09673e-08
4.2268e-06
6.53866e-08
4.23156e-06
6.83122e-08
4.23554e-06
6.85738e-08
4.23872e-06
6.67806e-08
4.24121e-06
6.41307e-08
4.24312e-06
6.11952e-08
4.24453e-06
5.81598e-08
4.24554e-06
5.51184e-08
4.24621e-06
5.21767e-08
4.24661e-06
4.93559e-08
4.24682e-06
4.67073e-08
4.24686e-06
4.41868e-08
4.24688e-06
4.18842e-08
4.24681e-06
3.96184e-08
3.74621e-08
4.24701e-06
4.51069e-06
1.47241e-08
4.51689e-06
4.33994e-08
4.52214e-06
5.5713e-08
4.52696e-06
6.05651e-08
4.53168e-06
6.35921e-08
4.53594e-06
6.43153e-08
4.53963e-06
6.30949e-08
4.5428e-06
6.09546e-08
4.54554e-06
5.84547e-08
4.54791e-06
5.57924e-08
4.54996e-06
5.30719e-08
4.55174e-06
5.03913e-08
4.55331e-06
4.77896e-08
4.55471e-06
4.53038e-08
4.55598e-06
4.29163e-08
4.55721e-06
4.06577e-08
4.55839e-06
3.8435e-08
3.62089e-08
4.55965e-06
4.83431e-06
1.31358e-08
4.83963e-06
3.80749e-08
4.84476e-06
5.0583e-08
4.84947e-06
5.58562e-08
4.85411e-06
5.89513e-08
4.85844e-06
5.99879e-08
4.86232e-06
5.92104e-08
4.8658e-06
5.74747e-08
4.86894e-06
5.53217e-08
4.87177e-06
5.296e-08
4.87434e-06
5.05019e-08
4.87669e-06
4.80392e-08
4.87886e-06
4.56211e-08
4.88089e-06
4.32764e-08
4.8828e-06
4.10014e-08
4.88466e-06
3.87995e-08
4.88648e-06
3.66185e-08
3.44041e-08
4.88828e-06
5.18103e-06
1.16845e-08
5.18576e-06
3.335e-08
5.19076e-06
4.55755e-08
5.19542e-06
5.11984e-08
5.20002e-06
5.43575e-08
5.20439e-06
5.56188e-08
5.20839e-06
5.52022e-08
5.21206e-06
5.38097e-08
5.21543e-06
5.1952e-08
5.21854e-06
4.98486e-08
5.22142e-06
4.76171e-08
5.22412e-06
4.53458e-08
5.22665e-06
4.30887e-08
5.22905e-06
4.08725e-08
5.23136e-06
3.87001e-08
5.23359e-06
3.65662e-08
5.23577e-06
3.44391e-08
3.22791e-08
5.23789e-06
5.55268e-06
1.03375e-08
5.55689e-06
2.91432e-08
5.5617e-06
4.07631e-08
5.56632e-06
4.65831e-08
5.57089e-06
4.97853e-08
5.57531e-06
5.12041e-08
5.57942e-06
5.10858e-08
5.58324e-06
4.99957e-08
5.58679e-06
4.84019e-08
5.5901e-06
4.65313e-08
5.59322e-06
4.45054e-08
5.59615e-06
4.24105e-08
5.59894e-06
4.03027e-08
5.6016e-06
3.82095e-08
5.60416e-06
3.61385e-08
5.60664e-06
3.40848e-08
5.60905e-06
3.20288e-08
2.9951e-08
5.61138e-06
5.95104e-06
9.07824e-09
5.95479e-06
2.53911e-08
5.95937e-06
3.6185e-08
5.96393e-06
4.20213e-08
5.96848e-06
4.52307e-08
5.97294e-06
4.67506e-08
5.97715e-06
4.6872e-08
5.9811e-06
4.60478e-08
5.98481e-06
4.46937e-08
5.9883e-06
4.30384e-08
5.9916e-06
4.12052e-08
5.99473e-06
3.92789e-08
5.99772e-06
3.73161e-08
6.00058e-06
3.53468e-08
6.00334e-06
3.33824e-08
6.006e-06
3.14223e-08
6.00857e-06
2.94563e-08
2.7482e-08
6.01104e-06
6.37798e-06
7.9084e-09
6.38135e-06
2.2026e-08
6.38568e-06
3.18521e-08
6.39017e-06
3.75298e-08
6.3947e-06
4.06996e-08
6.39918e-06
4.22705e-08
6.40348e-06
4.25733e-08
6.40755e-06
4.19768e-08
6.41141e-06
4.08401e-08
6.41506e-06
3.9385e-08
6.41853e-06
3.77354e-08
6.42183e-06
3.59739e-08
6.42499e-06
3.41566e-08
6.42803e-06
3.23159e-08
6.43094e-06
3.04674e-08
6.43375e-06
2.86156e-08
6.43645e-06
2.67579e-08
2.49043e-08
6.43902e-06
5.74176e-06
6.9824e-09
5.74434e-06
1.94422e-08
5.74782e-06
2.83796e-08
5.75155e-06
3.37976e-08
5.75536e-06
3.68921e-08
5.75915e-06
3.84724e-08
5.76284e-06
3.88845e-08
5.76637e-06
3.84488e-08
5.76973e-06
3.74782e-08
5.77294e-06
3.61817e-08
5.77599e-06
3.46812e-08
5.77891e-06
3.30572e-08
5.7817e-06
3.13651e-08
5.78438e-06
2.96388e-08
5.78695e-06
2.78968e-08
5.78941e-06
2.61482e-08
5.79178e-06
2.43948e-08
2.26556e-08
5.79403e-06
6.99914e-06
5.99863e-09
7.00187e-06
1.67082e-08
7.00564e-06
2.4612e-08
7.00981e-06
2.96262e-08
7.01414e-06
3.25666e-08
7.0185e-06
3.41124e-08
7.02278e-06
3.46045e-08
7.02691e-06
3.43176e-08
7.03087e-06
3.35152e-08
7.03467e-06
3.23873e-08
7.0383e-06
3.10509e-08
7.04177e-06
2.95832e-08
7.0451e-06
2.80377e-08
7.04829e-06
2.64495e-08
7.05134e-06
2.48399e-08
7.05427e-06
2.3222e-08
7.05706e-06
2.16018e-08
2.00045e-08
7.05972e-06
8.53188e-06
4.9649e-09
8.53474e-06
1.38514e-08
8.53877e-06
2.05773e-08
8.54338e-06
2.50231e-08
8.54824e-06
2.77053e-08
8.5532e-06
2.91534e-08
8.55812e-06
2.96802e-08
8.56292e-06
2.95164e-08
8.56756e-06
2.88753e-08
8.57203e-06
2.79213e-08
8.57632e-06
2.67626e-08
8.58043e-06
2.54708e-08
8.58437e-06
2.40964e-08
8.58814e-06
2.26745e-08
8.59176e-06
2.1228e-08
8.59521e-06
1.97733e-08
8.59849e-06
1.83196e-08
1.68951e-08
8.6016e-06
1.04003e-05
3.8906e-09
1.04033e-05
1.08911e-08
1.04075e-05
1.62976e-08
1.04126e-05
1.99976e-08
1.0418e-05
2.22928e-08
1.04236e-05
2.35598e-08
1.04292e-05
2.4059e-08
1.04347e-05
2.39776e-08
1.04401e-05
2.348e-08
1.04453e-05
2.26994e-08
1.04504e-05
2.17291e-08
1.04552e-05
2.06329e-08
1.04599e-05
1.94563e-08
1.04643e-05
1.82322e-08
1.04685e-05
1.69838e-08
1.04726e-05
1.57288e-08
1.04764e-05
1.4478e-08
1.32601e-08
1.04801e-05
1.26779e-05
2.78075e-09
1.2681e-05
7.82218e-09
1.26855e-05
1.17719e-08
1.26909e-05
1.4545e-08
1.26969e-05
1.63028e-08
1.27032e-05
1.72842e-08
1.27096e-05
1.76789e-08
1.27159e-05
1.76262e-08
1.27222e-05
1.72435e-08
1.27283e-05
1.66287e-08
1.27341e-05
1.58547e-08
1.27398e-05
1.49734e-08
1.27452e-05
1.40225e-08
1.27504e-05
1.30302e-08
1.27554e-05
1.20176e-08
1.27601e-05
1.10014e-08
1.27646e-05
9.99197e-09
9.01619e-09
1.27688e-05
1.54543e-05
1.62484e-09
1.54576e-05
4.59898e-09
1.54624e-05
6.94337e-09
1.54683e-05
8.60648e-09
1.5475e-05
9.6632e-09
1.5482e-05
1.02385e-08
1.54892e-05
1.04417e-08
1.54965e-05
1.03567e-08
1.55037e-05
1.00542e-08
1.55107e-05
9.59409e-09
1.55176e-05
9.02336e-09
1.55242e-05
8.37699e-09
1.55305e-05
7.68137e-09
1.55366e-05
6.95701e-09
1.55424e-05
6.21992e-09
1.55479e-05
5.4833e-09
1.55531e-05
4.7554e-09
4.05901e-09
1.55581e-05
1.88389e-05
3.83046e-10
1.88424e-05
1.09766e-09
1.88477e-05
1.63921e-09
1.88543e-05
1.99233e-09
1.88618e-05
2.17771e-09
1.88698e-05
2.223e-09
1.88781e-05
2.14999e-09
1.88865e-05
1.97851e-09
1.88948e-05
1.72883e-09
1.8903e-05
1.41952e-09
1.89109e-05
1.06611e-09
1.89186e-05
6.81612e-10
1.8926e-05
2.77147e-10
1.89331e-05
-1.37706e-10
1.89399e-05
-5.54802e-10
1.89463e-05
-9.6675e-10
1.89525e-05
-1.36921e-09
-1.74503e-09
1.89583e-05
2.29648e-05
-1.04548e-09
2.29688e-05
-2.97035e-09
2.2975e-05
-4.55941e-09
2.29828e-05
-5.77288e-09
2.29916e-05
-6.6307e-09
2.3001e-05
-7.21919e-09
2.30108e-05
-7.62575e-09
2.30207e-05
-7.90496e-09
2.30305e-05
-8.09339e-09
2.30402e-05
-8.22215e-09
2.30496e-05
-8.3148e-09
2.30586e-05
-8.38569e-09
2.30673e-05
-8.4426e-09
2.30757e-05
-8.48977e-09
2.30837e-05
-8.52917e-09
2.30913e-05
-8.56092e-09
2.30985e-05
-8.58564e-09
-8.59296e-09
2.31053e-05
1.68118e-05
-2.16657e-09
1.6815e-05
-6.1375e-09
1.68198e-05
-9.38398e-09
1.68258e-05
-1.1763e-08
1.68325e-05
-1.33331e-08
1.68396e-05
-1.43222e-08
1.68469e-05
-1.49181e-08
1.68542e-05
-1.52243e-08
1.68615e-05
-1.53199e-08
1.68685e-05
-1.52767e-08
1.68753e-05
-1.51475e-08
1.68819e-05
-1.4965e-08
1.68882e-05
-1.47499e-08
1.68943e-05
-1.4516e-08
1.69e-05
-1.4272e-08
1.69055e-05
-1.40226e-08
1.69106e-05
-1.37712e-08
-1.35113e-08
1.69156e-05
1.46356e-05
-3.2432e-09
1.46387e-05
-9.22046e-09
1.46434e-05
-1.40935e-08
1.46492e-05
-1.74999e-08
1.46555e-05
-1.96113e-08
1.4662e-05
-2.08775e-08
1.46687e-05
-2.15689e-08
1.46753e-05
-2.18213e-08
1.46817e-05
-2.17658e-08
1.46879e-05
-2.15188e-08
1.4694e-05
-2.11559e-08
1.46997e-05
-2.07217e-08
1.47052e-05
-2.02464e-08
1.47104e-05
-1.9751e-08
1.47154e-05
-1.92491e-08
1.47201e-05
-1.8748e-08
1.47246e-05
-1.82527e-08
-1.77593e-08
1.47289e-05
1.27411e-05
-4.25124e-09
1.27443e-05
-1.2344e-08
1.27491e-05
-1.89198e-08
1.27547e-05
-2.31402e-08
1.27607e-05
-2.55844e-08
1.27669e-05
-2.70269e-08
1.2773e-05
-2.77305e-08
1.2779e-05
-2.78447e-08
1.27848e-05
-2.75766e-08
1.27904e-05
-2.70914e-08
1.27957e-05
-2.64786e-08
1.28008e-05
-2.57899e-08
1.28056e-05
-2.50622e-08
1.28102e-05
-2.43212e-08
1.28145e-05
-2.35823e-08
1.28186e-05
-2.28539e-08
1.28225e-05
-2.2141e-08
-2.14407e-08
1.28262e-05
1.10918e-05
-5.09214e-09
1.1095e-05
-1.55624e-08
1.11001e-05
-2.4043e-08
1.11057e-05
-2.87602e-08
1.11115e-05
-3.13132e-08
1.11173e-05
-3.28321e-08
1.1123e-05
-3.34488e-08
1.11285e-05
-3.33452e-08
1.11337e-05
-3.28237e-08
1.11387e-05
-3.20816e-08
1.11435e-05
-3.12106e-08
1.11479e-05
-3.02674e-08
1.11522e-05
-2.92951e-08
1.11562e-05
-2.83222e-08
1.11599e-05
-2.73641e-08
1.11635e-05
-2.64289e-08
1.11669e-05
-2.55206e-08
-2.4637e-08
1.11701e-05
9.65581e-06
-5.69072e-09
9.65924e-06
-1.89886e-08
9.66458e-06
-2.93865e-08
9.67008e-06
-3.42533e-08
9.67563e-06
-3.68647e-08
9.68118e-06
-3.8383e-08
9.6865e-06
-3.87717e-08
9.69152e-06
-3.83622e-08
9.69625e-06
-3.75568e-08
9.70072e-06
-3.65495e-08
9.70493e-06
-3.54195e-08
9.70889e-06
-3.42261e-08
9.71261e-06
-3.30168e-08
9.71611e-06
-3.18213e-08
9.7194e-06
-3.06545e-08
9.72249e-06
-2.95237e-08
9.7254e-06
-2.8431e-08
-2.73726e-08
9.72814e-06
8.4053e-06
-5.63632e-09
8.40963e-06
-2.33241e-08
8.41487e-06
-3.46212e-08
8.41989e-06
-3.92763e-08
8.42525e-06
-4.22236e-08
8.43065e-06
-4.37825e-08
8.43573e-06
-4.38479e-08
8.44042e-06
-4.30581e-08
8.44478e-06
-4.19151e-08
8.44883e-06
-4.05952e-08
8.45257e-06
-3.9168e-08
8.45604e-06
-3.7696e-08
8.45926e-06
-3.62285e-08
8.46223e-06
-3.47936e-08
8.46498e-06
-3.34061e-08
8.46753e-06
-3.20725e-08
8.46989e-06
-3.07947e-08
-2.95691e-08
8.47209e-06
7.3145e-06
-2.85262e-09
7.32119e-06
-3.00121e-08
7.32674e-06
-4.01723e-08
7.33168e-06
-4.42205e-08
7.33707e-06
-4.76146e-08
7.34239e-06
-4.90959e-08
7.34726e-06
-4.87172e-08
7.35166e-06
-4.74619e-08
7.35563e-06
-4.58838e-08
7.35918e-06
-4.41409e-08
7.36232e-06
-4.23144e-08
7.3651e-06
-4.04768e-08
7.36755e-06
-3.86806e-08
7.36971e-06
-3.69501e-08
7.37161e-06
-3.53003e-08
7.37327e-06
-3.37345e-08
7.37473e-06
-3.22526e-08
-3.08453e-08
7.376e-06
6.36243e-06
4.78037e-09
6.37189e-06
-3.94739e-08
6.37932e-06
-4.75952e-08
6.38595e-06
-5.0854e-08
6.39223e-06
-5.38912e-08
6.39753e-06
-5.44029e-08
6.40182e-06
-5.30046e-08
6.40529e-06
-5.09349e-08
6.40809e-06
-4.8676e-08
6.41026e-06
-4.63172e-08
6.41189e-06
-4.39382e-08
6.41303e-06
-4.16153e-08
6.41374e-06
-3.93989e-08
6.4141e-06
-3.7308e-08
6.41416e-06
-3.53548e-08
6.41396e-06
-3.35374e-08
6.41356e-06
-3.18561e-08
-3.02898e-08
6.41301e-06
5.54129e-06
8.95193e-09
5.55032e-06
-4.85025e-08
5.55833e-06
-5.56068e-08
5.56604e-06
-5.85577e-08
5.57249e-06
-6.03483e-08
5.57681e-06
-5.87237e-08
5.57905e-06
-5.52404e-08
5.5796e-06
-5.14883e-08
5.57884e-06
-4.79163e-08
5.57705e-06
-4.4525e-08
5.57445e-06
-4.13375e-08
5.57123e-06
-3.83946e-08
5.56754e-06
-3.57041e-08
5.56349e-06
-3.32601e-08
5.55919e-06
-3.10543e-08
5.55473e-06
-2.90759e-08
5.55019e-06
-2.73248e-08
-2.5748e-08
5.54565e-06
4.86019e-06
-2.3631e-08
4.86538e-06
-5.36932e-08
4.86523e-06
-5.54568e-08
4.86217e-06
-5.54928e-08
4.85699e-06
-5.51734e-08
4.84948e-06
-5.12177e-08
4.83979e-06
-4.55435e-08
4.82839e-06
-4.00905e-08
4.81581e-06
-3.53334e-08
4.80252e-06
-3.12406e-08
4.78892e-06
-2.77328e-08
4.77527e-06
-2.47502e-08
4.76178e-06
-2.22127e-08
4.74858e-06
-2.00549e-08
4.73574e-06
-1.82208e-08
4.72335e-06
-1.66868e-08
4.71152e-06
-1.54892e-08
-1.51392e-08
4.70091e-06
4.17905e-06
4.12535e-06
4.0699e-06
4.0144e-06
3.95923e-06
3.90801e-06
3.86247e-06
3.82238e-06
3.78704e-06
3.7558e-06
3.72807e-06
3.70332e-06
3.68111e-06
3.66105e-06
3.64283e-06
3.62615e-06
3.61066e-06
3.59552e-06
1.07646e-08
-1.079e-08
2.37832e-08
-1.30489e-08
3.32529e-08
-9.50705e-09
3.7684e-08
-4.45546e-09
3.69107e-08
7.38085e-10
3.15357e-08
5.35056e-09
2.24616e-08
9.03899e-09
1.06222e-08
1.18154e-08
-3.27317e-09
1.38621e-08
-1.87384e-08
1.54454e-08
-3.55167e-08
1.67517e-08
-5.3416e-08
1.78848e-08
-7.23674e-08
1.89306e-08
-9.23111e-08
1.99331e-08
-1.13237e-07
2.09103e-08
-1.35115e-07
2.18684e-08
-1.57932e-07
2.2806e-08
-1.81663e-07
2.37199e-08
-2.06277e-07
2.46035e-08
-2.31746e-07
2.54502e-08
-2.5801e-07
2.62528e-08
-2.85044e-07
2.70044e-08
-3.1276e-07
2.77042e-08
-3.41154e-07
2.83554e-08
-3.70139e-07
2.8973e-08
-3.99738e-07
2.95608e-08
-4.29871e-07
3.01294e-08
-4.60693e-07
3.07927e-08
-4.92215e-07
3.15255e-08
-5.24411e-07
3.21816e-08
-5.57276e-07
3.28772e-08
-5.91156e-07
3.38811e-08
-6.25926e-07
3.47854e-08
-6.61332e-07
3.54184e-08
-6.97151e-07
3.58341e-08
-7.33009e-07
3.58746e-08
-7.69387e-07
3.63888e-08
-8.07877e-07
3.85031e-08
-8.5016e-07
4.22875e-08
-8.94834e-07
4.46807e-08
-9.38935e-07
4.41002e-08
-9.8716e-07
4.8227e-08
-1.03071e-06
4.35441e-08
-1.06486e-06
3.4149e-08
-1.10369e-06
3.88284e-08
-1.14519e-06
4.15023e-08
-1.18812e-06
4.29181e-08
-1.23165e-06
4.35331e-08
-1.27542e-06
4.3768e-08
-1.31922e-06
4.37975e-08
-1.36294e-06
4.37144e-08
-1.4065e-06
4.35606e-08
-1.44986e-06
4.33608e-08
-1.49299e-06
4.31284e-08
-1.53587e-06
4.28707e-08
-1.57846e-06
4.25918e-08
-1.62076e-06
4.22933e-08
-1.66274e-06
4.19756e-08
-1.70438e-06
4.1638e-08
-1.74566e-06
4.12794e-08
-1.78657e-06
4.08983e-08
-1.82706e-06
4.04926e-08
-1.86713e-06
4.00608e-08
-1.90673e-06
3.96004e-08
-1.94585e-06
3.911e-08
-1.98444e-06
3.85871e-08
-2.02247e-06
3.80307e-08
-2.05992e-06
3.74386e-08
-2.09673e-06
3.68099e-08
-2.13288e-06
3.61426e-08
-2.16832e-06
3.54365e-08
-2.20301e-06
3.46897e-08
-2.23692e-06
3.39023e-08
-2.27e-06
3.30727e-08
-2.3022e-06
3.22015e-08
-2.3335e-06
3.12874e-08
-2.36383e-06
3.03312e-08
-2.39317e-06
2.93322e-08
-2.42147e-06
2.82915e-08
-2.44868e-06
2.72082e-08
-2.47477e-06
2.60838e-08
-2.49969e-06
2.49175e-08
-2.52341e-06
2.37113e-08
-2.54588e-06
2.24639e-08
-2.56706e-06
2.11771e-08
-2.58692e-06
1.985e-08
-2.6054e-06
1.84844e-08
-2.62248e-06
1.70781e-08
-2.63811e-06
1.56314e-08
-2.65225e-06
1.41415e-08
-2.66485e-06
1.26039e-08
-2.67586e-06
1.10132e-08
-2.68523e-06
9.36377e-09
-2.69288e-06
7.64771e-09
-2.69873e-06
5.8516e-09
-2.7027e-06
3.95686e-09
-2.70466e-06
1.9621e-09
-2.70462e-06
-5.23266e-11
-2.70275e-06
-1.87533e-09
-2.69925e-06
-3.50374e-09
-2.69416e-06
-5.09197e-09
-2.68751e-06
-6.66915e-09
-2.67927e-06
-8.24853e-09
-2.66945e-06
-9.83283e-09
-2.65804e-06
-1.14204e-08
-2.64505e-06
-1.30109e-08
-2.63046e-06
-1.46012e-08
-2.61428e-06
-1.61909e-08
-2.59652e-06
-1.77768e-08
-2.57717e-06
-1.9359e-08
-2.55624e-06
-2.09338e-08
-2.53375e-06
-2.25015e-08
-2.5097e-06
-2.40582e-08
-2.4841e-06
-2.56043e-08
-2.45697e-06
-2.71356e-08
-2.42832e-06
-2.86529e-08
-2.39817e-06
-3.01517e-08
-2.36654e-06
-3.16324e-08
-2.33344e-06
-3.3091e-08
-2.29891e-06
-3.45283e-08
-2.26297e-06
-3.59414e-08
-2.22565e-06
-3.73302e-08
-2.18696e-06
-3.86899e-08
-2.14695e-06
-4.00203e-08
-2.10564e-06
-4.13162e-08
-2.06307e-06
-4.25795e-08
-2.01926e-06
-4.38067e-08
-1.97425e-06
-4.50006e-08
-1.92809e-06
-4.61568e-08
-1.8808e-06
-4.72769e-08
-1.83243e-06
-4.83587e-08
-1.78301e-06
-4.93999e-08
-1.7326e-06
-5.03919e-08
-1.68124e-06
-5.13422e-08
-1.62896e-06
-5.22507e-08
-1.57582e-06
-5.31147e-08
-1.52186e-06
-5.39297e-08
-1.46713e-06
-5.46976e-08
-1.41167e-06
-5.54172e-08
-1.35555e-06
-5.60892e-08
-1.2988e-06
-5.67127e-08
-1.24148e-06
-5.72874e-08
-1.18364e-06
-5.78136e-08
-1.12533e-06
-5.82907e-08
-1.06659e-06
-5.87196e-08
-1.00747e-06
-5.90996e-08
-9.48019e-07
-5.9432e-08
-8.88289e-07
-5.97164e-08
-8.28325e-07
-5.99546e-08
-7.68172e-07
-6.01463e-08
-7.07876e-07
-6.02937e-08
-6.47479e-07
-6.03964e-08
-5.87026e-07
-6.04572e-08
-5.26557e-07
-6.04756e-08
-4.66114e-07
-6.04543e-08
-4.05734e-07
-6.03929e-08
-3.45456e-07
-6.02939e-08
-2.85318e-07
-6.01562e-08
-2.25357e-07
-5.99825e-08
-1.65608e-07
-5.97716e-08
-1.06101e-07
-5.95328e-08
-4.68803e-08
-5.92462e-08
1.19668e-08
-5.88758e-08
7.04761e-08
-5.85359e-08
1.28633e-07
-5.81862e-08
1.86347e-07
-5.77398e-08
2.43617e-07
-5.72999e-08
3.00458e-07
-5.68678e-08
3.56868e-07
-5.64389e-08
4.1284e-07
-5.59996e-08
4.68345e-07
-5.55351e-08
5.23335e-07
-5.50183e-08
5.77712e-07
-5.4408e-08
6.31309e-07
-5.36265e-08
6.83808e-07
-5.25305e-08
7.34594e-07
-5.08169e-08
7.82352e-07
-4.77896e-08
8.23917e-07
-4.15941e-08
8.51155e-07
-2.72649e-08
1.78766e-08
8.33257e-07
8.89293e-09
-1.97025e-08
1.20065e-08
-1.61836e-08
1.04922e-08
-8.01217e-09
5.79854e-09
2.24907e-10
-1.41933e-09
7.93965e-09
-1.09481e-08
1.48669e-08
-2.27616e-08
2.08368e-08
-3.67694e-08
2.58115e-08
-5.28094e-08
2.98879e-08
-7.06236e-08
3.32494e-08
-8.99803e-08
3.60959e-08
-1.10702e-07
3.85977e-08
-1.32663e-07
4.08815e-08
-1.55768e-07
4.30309e-08
-1.79961e-07
4.50953e-08
-2.05201e-07
4.71023e-08
-2.31466e-07
4.90646e-08
-2.58741e-07
5.09874e-08
-2.87014e-07
5.28706e-08
-3.16287e-07
5.4712e-08
-3.4655e-07
5.65085e-08
-3.7782e-07
5.8259e-08
-4.10091e-07
5.99657e-08
-4.43392e-07
6.16356e-08
-4.77711e-07
6.32828e-08
-5.13093e-07
6.4924e-08
-5.49552e-07
6.65826e-08
-5.8707e-07
6.82969e-08
-6.25626e-07
7.00809e-08
-6.6536e-07
7.19097e-08
-7.06277e-07
7.3799e-08
-7.48129e-07
7.57359e-08
-7.90867e-07
7.75325e-08
-8.34478e-07
7.90382e-08
-8.78953e-07
8.03194e-08
-9.24598e-07
8.15305e-08
-9.7122e-07
8.30182e-08
-1.01769e-06
8.49855e-08
-1.06247e-06
8.70681e-08
-1.10619e-06
8.84019e-08
-1.151e-06
8.89096e-08
-1.1921e-06
8.9331e-08
-1.23574e-06
8.71824e-08
-1.28549e-06
8.38902e-08
-1.3301e-06
8.3434e-08
-1.37213e-06
8.35349e-08
-1.41282e-06
8.361e-08
-1.4528e-06
8.3504e-08
-1.49226e-06
8.32319e-08
-1.53131e-06
8.28398e-08
-1.56996e-06
8.23644e-08
-1.60823e-06
8.18294e-08
-1.64612e-06
8.12495e-08
-1.68362e-06
8.06329e-08
-1.72074e-06
7.99838e-08
-1.75745e-06
7.93035e-08
-1.79375e-06
7.85913e-08
-1.82962e-06
7.78455e-08
-1.86505e-06
7.70633e-08
-1.90002e-06
7.62416e-08
-1.9345e-06
7.5377e-08
-1.96847e-06
7.44658e-08
-2.00192e-06
7.35045e-08
-2.03481e-06
7.24896e-08
-2.06712e-06
7.14178e-08
-2.09883e-06
7.02859e-08
-2.12989e-06
6.90911e-08
-2.16028e-06
6.78307e-08
-2.18998e-06
6.65027e-08
-2.21894e-06
6.51047e-08
-2.24715e-06
6.36352e-08
-2.27455e-06
6.20927e-08
-2.30113e-06
6.04761e-08
-2.32684e-06
5.87843e-08
-2.35166e-06
5.70171e-08
-2.37555e-06
5.51738e-08
-2.39848e-06
5.32548e-08
-2.42041e-06
5.126e-08
-2.44131e-06
4.91902e-08
-2.46115e-06
4.70454e-08
-2.4799e-06
4.4827e-08
-2.49752e-06
4.25353e-08
-2.51398e-06
4.01719e-08
-2.52926e-06
3.77371e-08
-2.54332e-06
3.52327e-08
-2.55613e-06
3.26594e-08
-2.56767e-06
3.00187e-08
-2.5779e-06
2.73109e-08
-2.58681e-06
2.45373e-08
-2.59436e-06
2.16977e-08
-2.60055e-06
1.87919e-08
-2.60535e-06
1.58207e-08
-2.60878e-06
1.27862e-08
-2.61083e-06
9.69197e-09
-2.61152e-06
6.54434e-09
-2.61093e-06
3.36194e-09
-2.60916e-06
1.85785e-10
-2.60628e-06
-2.93446e-09
-2.60214e-06
-6.01671e-09
-2.59654e-06
-9.10678e-09
-2.58943e-06
-1.22097e-08
-2.58078e-06
-1.53243e-08
-2.57059e-06
-1.84525e-08
-2.55884e-06
-2.15924e-08
-2.54553e-06
-2.4741e-08
-2.53066e-06
-2.78946e-08
-2.51422e-06
-3.10495e-08
-2.49621e-06
-3.42024e-08
-2.47665e-06
-3.73493e-08
-2.45553e-06
-4.04873e-08
-2.43285e-06
-4.36125e-08
-2.40864e-06
-4.67216e-08
-2.38289e-06
-4.98107e-08
-2.35562e-06
-5.28769e-08
-2.32684e-06
-5.59158e-08
-2.29657e-06
-5.89247e-08
-2.26483e-06
-6.18991e-08
-2.23162e-06
-6.48356e-08
-2.19698e-06
-6.77306e-08
-2.16093e-06
-7.05816e-08
-2.12349e-06
-7.33853e-08
-2.08468e-06
-7.61386e-08
-2.04454e-06
-7.88361e-08
-2.00309e-06
-8.14736e-08
-1.96037e-06
-8.40461e-08
-1.9164e-06
-8.65516e-08
-1.87122e-06
-8.89874e-08
-1.82486e-06
-9.13534e-08
-1.77737e-06
-9.3647e-08
-1.72877e-06
-9.58678e-08
-1.67911e-06
-9.8013e-08
-1.62842e-06
-1.00075e-07
-1.57676e-06
-1.02044e-07
-1.52416e-06
-1.03928e-07
-1.47067e-06
-1.05728e-07
-1.41633e-06
-1.07438e-07
-1.36119e-06
-1.09053e-07
-1.3053e-06
-1.10572e-07
-1.2487e-06
-1.11995e-07
-1.19144e-06
-1.13322e-07
-1.13359e-06
-1.14553e-07
-1.07517e-06
-1.15686e-07
-1.01625e-06
-1.16721e-07
-9.56869e-07
-1.17659e-07
-8.97078e-07
-1.18499e-07
-8.36925e-07
-1.19243e-07
-7.76458e-07
-1.1989e-07
-7.15726e-07
-1.20443e-07
-6.54774e-07
-1.20902e-07
-5.93649e-07
-1.21269e-07
-5.32396e-07
-1.21545e-07
-4.71059e-07
-1.21734e-07
-4.09682e-07
-1.21837e-07
-3.48305e-07
-1.21857e-07
-2.86969e-07
-1.21795e-07
-2.25714e-07
-1.21656e-07
-1.64576e-07
-1.2144e-07
-1.03591e-07
-1.21151e-07
-4.27934e-08
-1.20791e-07
1.77894e-08
-1.20367e-07
7.81298e-08
-1.19885e-07
1.38208e-07
-1.19337e-07
1.98018e-07
-1.18699e-07
2.57453e-07
-1.17985e-07
3.16457e-07
-1.17203e-07
3.75073e-07
-1.16371e-07
4.33295e-07
-1.15537e-07
4.91121e-07
-1.14709e-07
5.4854e-07
-1.13874e-07
6.05538e-07
-1.13014e-07
6.62082e-07
-1.12096e-07
7.18118e-07
-1.11071e-07
7.73548e-07
-1.09855e-07
8.28202e-07
-1.08299e-07
8.81777e-07
-1.06124e-07
9.33732e-07
-1.02791e-07
9.83002e-07
-9.70784e-08
1.02791e-06
-8.65196e-08
1.06509e-06
-6.44648e-08
-1.20437e-08
1.095e-06
4.17975e-10
-2.01342e-08
-5.31425e-09
-1.04654e-08
-1.3709e-08
3.70937e-10
-2.37986e-08
1.03072e-08
-3.52498e-08
1.9382e-08
-4.79987e-08
2.7609e-08
-6.21227e-08
3.49528e-08
-7.77184e-08
4.14008e-08
-9.48441e-08
4.70057e-08
-1.13482e-07
5.18817e-08
-1.33568e-07
5.61752e-08
-1.5501e-07
6.00336e-08
-1.77717e-07
6.35829e-08
-2.01611e-07
6.69203e-08
-2.26635e-07
7.0114e-08
-2.52747e-07
7.32096e-08
-2.79921e-07
7.62351e-08
-3.08146e-07
7.9208e-08
-3.37416e-07
8.2137e-08
-3.67737e-07
8.50267e-08
-3.99111e-07
8.7879e-08
-4.31555e-07
9.06941e-08
-4.65067e-07
9.34725e-08
-4.99657e-07
9.62152e-08
-5.35302e-07
9.89233e-08
-5.71984e-07
1.01595e-07
-6.0963e-07
1.04227e-07
-6.4815e-07
1.06809e-07
-6.87395e-07
1.09326e-07
-7.27238e-07
1.1175e-07
-7.67495e-07
1.1406e-07
-8.0799e-07
1.16232e-07
-8.48641e-07
1.1819e-07
-8.89449e-07
1.19852e-07
-9.30387e-07
1.21263e-07
-9.71353e-07
1.22504e-07
-1.01201e-06
1.23676e-07
-1.05179e-06
1.24768e-07
-1.0903e-06
1.25589e-07
-1.12782e-06
1.25917e-07
-1.16462e-06
1.25708e-07
-1.2004e-06
1.25111e-07
-1.23701e-06
1.23792e-07
-1.27521e-06
1.22087e-07
-1.31266e-06
1.20883e-07
-1.34917e-06
1.20047e-07
-1.38493e-06
1.19363e-07
-1.42012e-06
1.187e-07
-1.4549e-06
1.18007e-07
-1.48933e-06
1.17271e-07
-1.52346e-06
1.1649e-07
-1.5573e-06
1.15669e-07
-1.59086e-06
1.14808e-07
-1.62414e-06
1.1391e-07
-1.65713e-06
1.12972e-07
-1.68982e-06
1.11992e-07
-1.72219e-06
1.10967e-07
-1.75424e-06
1.09893e-07
-1.78595e-06
1.08764e-07
-1.81728e-06
1.07576e-07
-1.84823e-06
1.06324e-07
-1.87877e-06
1.05002e-07
-1.90887e-06
1.03606e-07
-1.93852e-06
1.0213e-07
-1.96767e-06
1.0057e-07
-1.99631e-06
9.89219e-08
-2.0244e-06
9.71815e-08
-2.05192e-06
9.53454e-08
-2.07883e-06
9.34103e-08
-2.1051e-06
9.13736e-08
-2.1307e-06
8.92329e-08
-2.15559e-06
8.69862e-08
-2.17975e-06
8.46321e-08
-2.20314e-06
8.21692e-08
-2.22572e-06
7.95968e-08
-2.24746e-06
7.69146e-08
-2.26833e-06
7.41226e-08
-2.2883e-06
7.12212e-08
-2.30732e-06
6.82109e-08
-2.32537e-06
6.50927e-08
-2.34241e-06
6.18678e-08
-2.35842e-06
5.85377e-08
-2.37335e-06
5.5104e-08
-2.38718e-06
5.15686e-08
-2.39989e-06
4.79338e-08
-2.41143e-06
4.42016e-08
-2.42179e-06
4.03748e-08
-2.43094e-06
3.6456e-08
-2.43885e-06
3.24481e-08
-2.4455e-06
2.83544e-08
-2.45089e-06
2.41783e-08
-2.45499e-06
1.99249e-08
-2.45781e-06
1.56015e-08
-2.45934e-06
1.1217e-08
-2.45958e-06
6.7841e-09
-2.45854e-06
2.32067e-09
-2.45621e-06
-2.15041e-09
-2.45252e-06
-6.6201e-09
-2.44743e-06
-1.11117e-08
-2.4409e-06
-1.56451e-08
-2.4329e-06
-2.02148e-08
-2.42341e-06
-2.48147e-08
-2.41243e-06
-2.944e-08
-2.39995e-06
-3.4085e-08
-2.38595e-06
-3.87445e-08
-2.37044e-06
-4.34121e-08
-2.35342e-06
-4.80828e-08
-2.33487e-06
-5.27507e-08
-2.31482e-06
-5.74109e-08
-2.29325e-06
-6.20575e-08
-2.27018e-06
-6.66861e-08
-2.24562e-06
-7.12906e-08
-2.21956e-06
-7.58663e-08
-2.19204e-06
-8.04074e-08
-2.16304e-06
-8.49093e-08
-2.1326e-06
-8.93661e-08
-2.10073e-06
-9.37726e-08
-2.06744e-06
-9.8123e-08
-2.03276e-06
-1.02413e-07
-1.9967e-06
-1.06637e-07
-1.9593e-06
-1.10791e-07
-1.92057e-06
-1.1487e-07
-1.88055e-06
-1.18867e-07
-1.83925e-06
-1.22774e-07
-1.79671e-06
-1.26587e-07
-1.75297e-06
-1.30301e-07
-1.70804e-06
-1.33912e-07
-1.66198e-06
-1.37418e-07
-1.6148e-06
-1.40816e-07
-1.56656e-06
-1.44106e-07
-1.51729e-06
-1.47283e-07
-1.46702e-06
-1.50337e-07
-1.4158e-06
-1.53258e-07
-1.36367e-06
-1.5605e-07
-1.31067e-06
-1.58715e-07
-1.25685e-06
-1.61246e-07
-1.20226e-06
-1.63637e-07
-1.14693e-06
-1.65886e-07
-1.09092e-06
-1.67991e-07
-1.03428e-06
-1.69953e-07
-9.7705e-07
-1.7177e-07
-9.19283e-07
-1.73442e-07
-8.61027e-07
-1.74969e-07
-8.02328e-07
-1.7635e-07
-7.43236e-07
-1.77586e-07
-6.83796e-07
-1.78677e-07
-6.24058e-07
-1.79625e-07
-5.64066e-07
-1.80431e-07
-5.03869e-07
-1.81097e-07
-4.4351e-07
-1.81625e-07
-3.83034e-07
-1.82019e-07
-3.22486e-07
-1.82282e-07
-2.61906e-07
-1.82417e-07
-2.01336e-07
-1.82427e-07
-1.40816e-07
-1.82317e-07
-8.03829e-08
-1.82091e-07
-2.00705e-08
-1.81755e-07
4.00877e-08
-1.81311e-07
1.00056e-07
-1.80762e-07
1.59803e-07
-1.80116e-07
2.19295e-07
-1.79381e-07
2.78513e-07
-1.78558e-07
3.37449e-07
-1.77638e-07
3.96078e-07
-1.76617e-07
4.54372e-07
-1.75501e-07
5.12326e-07
-1.74327e-07
5.69919e-07
-1.73134e-07
6.27139e-07
-1.71931e-07
6.83969e-07
-1.70708e-07
7.4039e-07
-1.69438e-07
7.96368e-07
-1.68078e-07
8.51849e-07
-1.66556e-07
9.06739e-07
-1.64749e-07
9.60883e-07
-1.62447e-07
1.01402e-06
-1.59266e-07
1.06572e-06
-1.54494e-07
1.1153e-06
-1.46671e-07
1.16187e-06
-1.33091e-07
1.20499e-06
-1.07589e-07
-5.63698e-08
1.24932e-06
-7.46045e-09
-1.2685e-08
-1.91116e-08
1.17603e-09
-3.21e-08
1.33516e-08
-4.59054e-08
2.41075e-08
-6.04335e-08
3.39046e-08
-7.57237e-08
4.2895e-08
-9.18885e-08
5.11123e-08
-1.09057e-07
5.85653e-08
-1.27343e-07
6.52867e-08
-1.46812e-07
7.13472e-08
-1.67487e-07
7.68456e-08
-1.8935e-07
8.18927e-08
-2.12364e-07
8.65936e-08
-2.36486e-07
9.10387e-08
-2.61674e-07
9.52986e-08
-2.87893e-07
9.94254e-08
-3.15115e-07
1.03455e-07
-3.43321e-07
1.07411e-07
-3.72492e-07
1.11306e-07
-4.02616e-07
1.15147e-07
-4.33671e-07
1.18933e-07
-4.65639e-07
1.22657e-07
-4.98475e-07
1.26309e-07
-5.32138e-07
1.29872e-07
-5.66542e-07
1.33327e-07
-6.01596e-07
1.36645e-07
-6.37167e-07
1.39798e-07
-6.73119e-07
1.42757e-07
-7.09288e-07
1.45497e-07
-7.45534e-07
1.47995e-07
-7.81711e-07
1.50239e-07
-8.17697e-07
1.52221e-07
-8.53426e-07
1.53922e-07
-8.88899e-07
1.55328e-07
-9.2409e-07
1.56458e-07
-9.58926e-07
1.57344e-07
-9.93259e-07
1.58011e-07
-1.02694e-06
1.5845e-07
-1.05996e-06
1.58606e-07
-1.09245e-06
1.58413e-07
-1.1246e-06
1.57859e-07
-1.15649e-06
1.56998e-07
-1.18855e-06
1.55842e-07
-1.22099e-06
1.54531e-07
-1.25341e-06
1.53303e-07
-1.28557e-06
1.52208e-07
-1.31742e-06
1.51208e-07
-1.34897e-06
1.5025e-07
-1.38026e-06
1.49298e-07
-1.41133e-06
1.48332e-07
-1.44218e-06
1.47341e-07
-1.47283e-06
1.46316e-07
-1.50327e-06
1.45254e-07
-1.53351e-06
1.44147e-07
-1.56353e-06
1.42992e-07
-1.59332e-06
1.41783e-07
-1.62287e-06
1.40514e-07
-1.65216e-06
1.39177e-07
-1.68116e-06
1.37767e-07
-1.70986e-06
1.36276e-07
-1.73824e-06
1.34699e-07
-1.76626e-06
1.33027e-07
-1.79392e-06
1.31256e-07
-1.82117e-06
1.29379e-07
-1.84799e-06
1.27389e-07
-1.87435e-06
1.25283e-07
-1.90023e-06
1.23054e-07
-1.92558e-06
1.20699e-07
-1.95039e-06
1.18214e-07
-1.97461e-06
1.15595e-07
-1.99822e-06
1.12838e-07
-2.02117e-06
1.09943e-07
-2.04345e-06
1.06907e-07
-2.06501e-06
1.03728e-07
-2.08582e-06
1.00405e-07
-2.10585e-06
9.69388e-08
-2.12505e-06
9.33287e-08
-2.14341e-06
8.95753e-08
-2.16088e-06
8.56795e-08
-2.17743e-06
8.16426e-08
-2.19303e-06
7.74665e-08
-2.20765e-06
7.31531e-08
-2.22125e-06
6.8705e-08
-2.23381e-06
6.41249e-08
-2.24529e-06
5.9416e-08
-2.25568e-06
5.45819e-08
-2.26493e-06
4.96265e-08
-2.27303e-06
4.45543e-08
-2.27995e-06
3.937e-08
-2.28567e-06
3.40788e-08
-2.29018e-06
2.8687e-08
-2.29346e-06
2.32017e-08
-2.29549e-06
1.76319e-08
-2.29626e-06
1.19877e-08
-2.29576e-06
6.28098e-09
-2.29397e-06
5.24792e-10
-2.29085e-06
-5.26993e-09
-2.28637e-06
-1.11027e-08
-2.2805e-06
-1.69857e-08
-2.27323e-06
-2.29254e-08
-2.26453e-06
-2.89163e-08
-2.2544e-06
-3.49504e-08
-2.24282e-06
-4.10201e-08
-2.2298e-06
-4.71171e-08
-2.21532e-06
-5.32341e-08
-2.19937e-06
-5.93627e-08
-2.18196e-06
-6.54962e-08
-2.16309e-06
-7.16266e-08
-2.14276e-06
-7.77474e-08
-2.12097e-06
-8.38511e-08
-2.09773e-06
-8.99311e-08
-2.07304e-06
-9.59799e-08
-2.04692e-06
-1.01991e-07
-2.01937e-06
-1.07957e-07
-1.99041e-06
-1.13872e-07
-1.96005e-06
-1.19728e-07
-1.92831e-06
-1.25518e-07
-1.89519e-06