/*--------------------------------*- C++ -*----------------------------------*\
  =========                 |
  \\      /  F ield         | OpenFOAM: The Open Source CFD Toolbox
   \\    /   O peration     | Website:  https://openfoam.org
    \\  /    A nd           | Version:  dev
     \\/     M anipulation  |
\*---------------------------------------------------------------------------*/
FoamFile
{
    format      ascii;
    class       volVectorField;
    location    "287";
    object      U;
}
// * * * * * * * * * * * * * * * * * * * * * * * * * * * * * * * * * * * * * //

dimensions      [0 1 -1 0 0 0 0];

internalField   nonuniform List<vector>
12225
(
(9.85699 -0.886638 0)
(9.6663 -0.740718 0)
(9.4558 -0.429421 0)
(9.22455 -0.222147 0)
(9.00655 -0.106401 0)
(8.81446 -0.0458204 0)
(8.64763 -0.015131 0)
(8.50547 0.000483209 0)
(8.38388 0.00840924 0)
(8.28117 0.0122944 0)
(8.19287 0.0139919 0)
(8.11681 0.0149911 0)
(8.05024 0.0153525 0)
(7.99145 0.0155019 0)
(7.93858 0.0156262 0)
(7.89278 0.0152589 0)
(7.83997 0.0180666 0)
(7.83115 0.0101645 0)
(10.0545 0.227708 0)
(10.1213 0.326964 0)
(10.1196 0.261651 0)
(10.0856 0.18659 0)
(10.0435 0.134693 0)
(9.99677 0.101129 0)
(9.94406 0.0792874 0)
(9.88535 0.0645612 0)
(9.82402 0.0542465 0)
(9.76156 0.0466494 0)
(9.70015 0.0408717 0)
(9.64041 0.0363033 0)
(9.5832 0.0326243 0)
(9.52894 0.0297195 0)
(9.47728 0.0271537 0)
(9.42983 0.0260822 0)
(9.3827 0.0226096 0)
(9.34749 0.0310421 0)
(10.0035 0.0581547 0)
(10.0305 0.0559492 0)
(10.056 0.0337735 0)
(10.0704 0.0328843 0)
(10.077 0.0406312 0)
(10.0779 0.0465262 0)
(10.0726 0.0493373 0)
(10.0615 0.0502775 0)
(10.0463 0.0501679 0)
(10.0279 0.0494449 0)
(10.0074 0.0483876 0)
(9.9853 0.0472038 0)
(9.96226 0.0459883 0)
(9.93874 0.04487 0)
(9.91499 0.0437445 0)
(9.89177 0.0431645 0)
(9.86873 0.0420704 0)
(9.84704 0.0434238 0)
(9.99772 0.0109483 0)
(10.0111 0.0266185 0)
(10.035 0.0371203 0)
(10.0525 0.0480622 0)
(10.0644 0.0554296 0)
(10.0735 0.0581596 0)
(10.0796 0.058325 0)
(10.0825 0.0575768 0)
(10.0829 0.0565189 0)
(10.0814 0.0553112 0)
(10.0784 0.0540221 0)
(10.0741 0.0527688 0)
(10.0688 0.0515422 0)
(10.0628 0.0504378 0)
(10.0561 0.0493522 0)
(10.0493 0.0486231 0)
(10.0424 0.0476615 0)
(10.0355 0.0474508 0)
(9.99935 0.00709949 0)
(10.009 0.0316934 0)
(10.0275 0.0439048 0)
(10.0418 0.0499036 0)
(10.0528 0.05359 0)
(10.0629 0.0552096 0)
(10.0716 0.0554829 0)
(10.0784 0.0551846 0)
(10.0836 0.0546299 0)
(10.0875 0.0539111 0)
(10.0903 0.0530814 0)
(10.0923 0.0522338 0)
(10.0935 0.0513804 0)
(10.0942 0.0505877 0)
(10.0945 0.0498045 0)
(10.0945 0.0491922 0)
(10.0944 0.0484619 0)
(10.0943 0.0478881 0)
(10.0003 0.00914831 0)
(10.0083 0.0312091 0)
(10.0227 0.0409408 0)
(10.035 0.0453794 0)
(10.0451 0.0490171 0)
(10.0548 0.0513441 0)
(10.0638 0.0523157 0)
(10.0715 0.0525375 0)
(10.078 0.052389 0)
(10.0836 0.0520071 0)
(10.0885 0.0514664 0)
(10.0927 0.0508523 0)
(10.0964 0.0501968 0)
(10.0997 0.0495465 0)
(10.1026 0.0488809 0)
(10.1054 0.0482643 0)
(10.108 0.0475572 0)
(10.1106 0.0467569 0)
(10.0005 0.00892242 0)
(10.0071 0.0271088 0)
(10.0191 0.0364105 0)
(10.0302 0.0413785 0)
(10.0396 0.0453916 0)
(10.0487 0.0480463 0)
(10.0573 0.0493031 0)
(10.065 0.0497581 0)
(10.0718 0.0498129 0)
(10.078 0.0496125 0)
(10.0835 0.0492331 0)
(10.0886 0.0487497 0)
(10.0933 0.0482022 0)
(10.0976 0.0476229 0)
(10.1017 0.0470048 0)
(10.1056 0.046364 0)
(10.1093 0.0456216 0)
(10.1131 0.0447057 0)
(10.0004 0.00789919 0)
(10.006 0.0233847 0)
(10.0161 0.0327303 0)
(10.0263 0.0380874 0)
(10.0352 0.0420703 0)
(10.0436 0.0447408 0)
(10.0518 0.0461369 0)
(10.0593 0.0467527 0)
(10.066 0.0469525 0)
(10.0723 0.0468802 0)
(10.078 0.0466129 0)
(10.0834 0.0462182 0)
(10.0885 0.0457389 0)
(10.0932 0.0451993 0)
(10.0977 0.0445977 0)
(10.1021 0.043929 0)
(10.1064 0.0431416 0)
(10.1105 0.0421666 0)
(10.0004 0.00694913 0)
(10.005 0.0204211 0)
(10.0137 0.0294442 0)
(10.0229 0.0348429 0)
(10.0312 0.0386813 0)
(10.0392 0.0413288 0)
(10.0469 0.0428437 0)
(10.0541 0.0435968 0)
(10.0607 0.0439108 0)
(10.0669 0.0439348 0)
(10.0727 0.0437483 0)
(10.0781 0.0434149 0)
(10.0833 0.0429772 0)
(10.0882 0.0424562 0)
(10.0928 0.0418526 0)
(10.0974 0.0411553 0)
(10.1018 0.0403275 0)
(10.1061 0.039323 0)
(10.0004 0.0061216 0)
(10.0043 0.0178499 0)
(10.0116 0.0262621 0)
(10.0199 0.0315585 0)
(10.0277 0.0352701 0)
(10.0352 0.0378806 0)
(10.0425 0.0394734 0)
(10.0494 0.0403275 0)
(10.0558 0.0407261 0)
(10.0618 0.0408212 0)
(10.0675 0.0406934 0)
(10.0729 0.0404027 0)
(10.0781 0.0399901 0)
(10.083 0.0394762 0)
(10.0877 0.0388636 0)
(10.0923 0.0381425 0)
(10.0966 0.0372869 0)
(10.1009 0.0362744 0)
(10.0003 0.00536322 0)
(10.0037 0.0155382 0)
(10.0099 0.0232204 0)
(10.0173 0.0283183 0)
(10.0245 0.0318871 0)
(10.0315 0.0344197 0)
(10.0384 0.0360361 0)
(10.045 0.0369525 0)
(10.0513 0.03741 0)
(10.0571 0.0375559 0)
(10.0627 0.0374706 0)
(10.068 0.0372101 0)
(10.0731 0.0368139 0)
(10.0779 0.0363026 0)
(10.0826 0.0356819 0)
(10.0871 0.0349458 0)
(10.0914 0.0340781 0)
(10.0956 0.0330747 0)
(10.0003 0.00469865 0)
(10.0032 0.0135965 0)
(10.0086 0.0205711 0)
(10.0152 0.0254025 0)
(10.0219 0.0288045 0)
(10.0286 0.0312304 0)
(10.0351 0.0328264 0)
(10.0414 0.0337679 0)
(10.0474 0.0342578 0)
(10.0531 0.0344339 0)
(10.0586 0.0343748 0)
(10.0638 0.0341334 0)
(10.0688 0.0337473 0)
(10.0735 0.0332381 0)
(10.0781 0.0326139 0)
(10.0825 0.0318736 0)
(10.0867 0.0310081 0)
(10.0907 0.0300271 0)
(10.0003 0.00408382 0)
(10.0028 0.0118267 0)
(10.0075 0.0180697 0)
(10.0134 0.0225586 0)
(10.0197 0.0257592 0)
(10.0259 0.0280531 0)
(10.0321 0.0295964 0)
(10.0381 0.0305362 0)
(10.0439 0.0310404 0)
(10.0495 0.0312337 0)
(10.0548 0.0311914 0)
(10.0598 0.0309636 0)
(10.0647 0.0305863 0)
(10.0694 0.0300813 0)
(10.0738 0.0294593 0)
(10.0781 0.0287241 0)
(10.0822 0.027872 0)
(10.0861 0.026923 0)
(10.0002 0.00344861 0)
(10.0024 0.00998769 0)
(10.0064 0.0153867 0)
(10.0117 0.0194081 0)
(10.0174 0.0223238 0)
(10.0232 0.0244259 0)
(10.029 0.0258659 0)
(10.0348 0.0267664 0)
(10.0403 0.0272604 0)
(10.0457 0.0274547 0)
(10.0508 0.027419 0)
(10.0557 0.0271998 0)
(10.0604 0.0268304 0)
(10.065 0.026333 0)
(10.0693 0.0257207 0)
(10.0734 0.0250014 0)
(10.0774 0.0241767 0)
(10.0812 0.0232735 0)
(10.0002 0.00278903 0)
(10.002 0.00807761 0)
(10.0055 0.0125327 0)
(10.0101 0.0159567 0)
(10.0153 0.0184854 0)
(10.0206 0.0203206 0)
(10.0261 0.0215933 0)
(10.0314 0.0224034 0)
(10.0367 0.0228512 0)
(10.0418 0.0230223 0)
(10.0468 0.0229777 0)
(10.0515 0.0227588 0)
(10.0561 0.0223958 0)
(10.0604 0.0219103 0)
(10.0646 0.0213168 0)
(10.0686 0.0206266 0)
(10.0724 0.0198451 0)
(10.076 0.0190027 0)
(10.0002 0.00210444 0)
(10.0017 0.00609855 0)
(10.0047 0.00951625 0)
(10.0088 0.0122095 0)
(10.0134 0.0142323 0)
(10.0183 0.0157082 0)
(10.0233 0.0167354 0)
(10.0283 0.0173896 0)
(10.0333 0.017742 0)
(10.0382 0.0178561 0)
(10.0429 0.0177803 0)
(10.0475 0.0175493 0)
(10.0518 0.0171887 0)
(10.056 0.0167183 0)
(10.06 0.0161527 0)
(10.0639 0.0155045 0)
(10.0675 0.0147811 0)
(10.071 0.0140134 0)
(10.0002 0.00139199 0)
(10.0015 0.00403661 0)
(10.0041 0.00632144 0)
(10.0076 0.00815014 0)
(10.0118 0.00953684 0)
(10.0163 0.0105455 0)
(10.0209 0.0112366 0)
(10.0256 0.0116588 0)
(10.0303 0.0118568 0)
(10.035 0.0118716 0)
(10.0394 0.0117365 0)
(10.0438 0.0114768 0)
(10.048 0.0111119 0)
(10.052 0.0106576 0)
(10.0559 0.0101269 0)
(10.0595 0.00953114 0)
(10.063 0.00887778 0)
(10.0663 0.00819522 0)
(10.0001 0.000635375 0)
(10.0013 0.00184017 0)
(10.0036 0.00287645 0)
(10.0068 0.00369896 0)
(10.0107 0.00430896 0)
(10.0148 0.00472874 0)
(10.0192 0.004981 0)
(10.0236 0.00508562 0)
(10.0281 0.00506201 0)
(10.0325 0.00492856 0)
(10.0368 0.00470105 0)
(10.0409 0.0043924 0)
(10.045 0.00401352 0)
(10.0488 0.00357401 0)
(10.0525 0.0030824 0)
(10.056 0.00254711 0)
(10.0593 0.0019734 0)
(10.0625 0.00138503 0)
(10.0001 -0.000208377 0)
(10.0012 -0.000612416 0)
(10.0034 -0.000991529 0)
(10.0065 -0.00133583 0)
(10.0102 -0.00164389 0)
(10.0143 -0.00192975 0)
(10.0185 -0.00221127 0)
(10.0228 -0.00250052 0)
(10.0271 -0.00280467 0)
(10.0313 -0.00312913 0)
(10.0355 -0.00347793 0)
(10.0395 -0.00385313 0)
(10.0434 -0.004255 0)
(10.0471 -0.00468251 0)
(10.0507 -0.00513372 0)
(10.0541 -0.00560552 0)
(10.0573 -0.00609635 0)
(10.0603 -0.00658931 0)
(10.0001 -0.00101525 0)
(10.0013 -0.00296511 0)
(10.0037 -0.00470859 0)
(10.007 -0.00616481 0)
(10.0108 -0.00732982 0)
(10.015 -0.00826338 0)
(10.0193 -0.00902688 0)
(10.0237 -0.00966222 0)
(10.028 -0.0102035 0)
(10.0323 -0.0106821 0)
(10.0364 -0.0111224 0)
(10.0404 -0.0115409 0)
(10.0442 -0.0119483 0)
(10.0479 -0.0123519 0)
(10.0514 -0.0127562 0)
(10.0547 -0.0131633 0)
(10.0579 -0.0135752 0)
(10.0609 -0.0139812 0)
(10.0002 -0.00171093 0)
(10.0015 -0.00501947 0)
(10.0041 -0.00795687 0)
(10.0078 -0.0103195 0)
(10.012 -0.0121281 0)
(10.0164 -0.0135327 0)
(10.021 -0.0146394 0)
(10.0255 -0.0155051 0)
(10.03 -0.0161865 0)
(10.0343 -0.0167419 0)
(10.0385 -0.0172156 0)
(10.0425 -0.0176359 0)
(10.0464 -0.0180218 0)
(10.0501 -0.0183867 0)
(10.0536 -0.0187397 0)
(10.0569 -0.0190862 0)
(10.06 -0.0194302 0)
(10.063 -0.0197647 0)
(10.0002 -0.00237148 0)
(10.0016 -0.00704933 0)
(10.0047 -0.0112031 0)
(10.009 -0.0143828 0)
(10.0137 -0.0166889 0)
(10.0185 -0.0184318 0)
(10.0233 -0.0197716 0)
(10.0281 -0.0207791 0)
(10.0328 -0.0215355 0)
(10.0373 -0.0221218 0)
(10.0416 -0.0225944 0)
(10.0456 -0.0229896 0)
(10.0495 -0.0233338 0)
(10.0532 -0.0236461 0)
(10.0567 -0.0239396 0)
(10.06 -0.0242219 0)
(10.0632 -0.0244982 0)
(10.0661 -0.0247641 0)
(10.0002 -0.00298929 0)
(10.0018 -0.00910547 0)
(10.0054 -0.0144731 0)
(10.0105 -0.0183713 0)
(10.0159 -0.0211233 0)
(10.0211 -0.023153 0)
(10.0263 -0.0246159 0)
(10.0314 -0.0256369 0)
(10.0362 -0.0263702 0)
(10.0409 -0.0269254 0)
(10.0452 -0.027359 0)
(10.0494 -0.0277064 0)
(10.0533 -0.0279968 0)
(10.057 -0.0282523 0)
(10.0605 -0.0284872 0)
(10.0639 -0.0287097 0)
(10.067 -0.0289251 0)
(10.0699 -0.0291311 0)
(10.0001 -0.00353235 0)
(10.0018 -0.0115609 0)
(10.0062 -0.017909 0)
(10.0123 -0.0220134 0)
(10.0183 -0.0250859 0)
(10.024 -0.0275011 0)
(10.0296 -0.0291449 0)
(10.035 -0.0301605 0)
(10.0401 -0.0308181 0)
(10.0448 -0.0312824 0)
(10.0493 -0.0316209 0)
(10.0536 -0.0318739 0)
(10.0575 -0.0320753 0)
(10.0613 -0.0322488 0)
(10.0648 -0.0324078 0)
(10.0681 -0.0325596 0)
(10.0712 -0.0327077 0)
(10.0741 -0.0328485 0)
(9.99991 -0.00337563 0)
(10.0016 -0.0149917 0)
(10.0073 -0.0227495 0)
(10.0142 -0.0262629 0)
(10.0206 -0.0288524 0)
(10.0268 -0.0312217 0)
(10.0331 -0.0329472 0)
(10.039 -0.0340397 0)
(10.0444 -0.0347436 0)
(10.0494 -0.0352111 0)
(10.054 -0.0355126 0)
(10.0583 -0.035702 0)
(10.0623 -0.0358255 0)
(10.0659 -0.0359138 0)
(10.0693 -0.035985 0)
(10.0725 -0.0360489 0)
(10.0754 -0.0361103 0)
(10.0781 -0.0361675 0)
(9.99859 -0.000382429 0)
(9.99903 -0.0158012 0)
(10.0076 -0.0274447 0)
(10.0166 -0.0325044 0)
(10.0238 -0.0348836 0)
(10.0306 -0.0362429 0)
(10.0376 -0.0369985 0)
(10.0441 -0.0374695 0)
(10.0498 -0.0378219 0)
(10.0549 -0.0380722 0)
(10.0595 -0.03822 0)
(10.0635 -0.0382902 0)
(10.0671 -0.0383127 0)
(10.0702 -0.0383089 0)
(10.073 -0.0382937 0)
(10.0754 -0.0382756 0)
(10.0776 -0.0382585 0)
(10.0794 -0.0382401 0)
(9.99487 0.00140521 0)
(9.99287 -0.00812623 0)
(10.006 -0.0203362 0)
(10.0202 -0.0322712 0)
(10.0306 -0.0404807 0)
(10.0392 -0.0441575 0)
(10.0467 -0.0450741 0)
(10.0529 -0.0449339 0)
(10.0577 -0.0444707 0)
(10.0616 -0.0438775 0)
(10.0646 -0.0432353 0)
(10.0667 -0.0426006 0)
(10.0682 -0.0420074 0)
(10.069 -0.0414645 0)
(10.0693 -0.0409804 0)
(10.0692 -0.0405531 0)
(10.0687 -0.0401791 0)
(10.0679 -0.0398321 0)
(9.9947 -0.0305776 0)
(9.99943 -0.0228517 0)
(10.0146 -0.00262296 0)
(10.0304 -0.00190575 0)
(10.0434 -0.0116598 0)
(10.0533 -0.0209279 0)
(10.0594 -0.027289 0)
(10.0618 -0.0315187 0)
(10.0615 -0.0342958 0)
(10.059 -0.0359942 0)
(10.055 -0.0369278 0)
(10.0497 -0.0373626 0)
(10.0434 -0.037489 0)
(10.0364 -0.0374273 0)
(10.0288 -0.0372663 0)
(10.0209 -0.0370639 0)
(10.0127 -0.0368832 0)
(10.0045 -0.0366917 0)
(10.0274 -0.183007 0)
(10.0766 -0.288325 0)
(10.0871 -0.247823 0)
(10.0777 -0.186561 0)
(10.0663 -0.140326 0)
(10.0537 -0.108246 0)
(10.0365 -0.0858997 0)
(10.0145 -0.0704418 0)
(9.98933 -0.0596709 0)
(9.96229 -0.0518948 0)
(9.9343 -0.0460722 0)
(9.90597 -0.0415743 0)
(9.87779 -0.0380178 0)
(9.85007 -0.0351411 0)
(9.82307 -0.0327775 0)
(9.79689 -0.0308532 0)
(9.77178 -0.0293336 0)
(9.74778 -0.0285165 0)
(9.93575 0.689541 0)
(9.86827 0.609594 0)
(9.76458 0.380605 0)
(9.62661 0.21741 0)
(9.48586 0.119241 0)
(9.35716 0.0631579 0)
(9.24263 0.0315455 0)
(9.14104 0.0135937 0)
(9.05136 0.00323989 0)
(8.97237 -0.00282082 0)
(8.90245 -0.00637416 0)
(8.84026 -0.00849243 0)
(8.78454 -0.00973889 0)
(8.73442 -0.0104968 0)
(8.68898 -0.0109775 0)
(8.64762 -0.0112535 0)
(8.60942 -0.0114775 0)
(8.57407 -0.0121156 0)
(0.00459049 -0.010699 -8.29888e-19)
(0.0159672 -0.0171085 7.31161e-19)
(0.0259648 -0.0149442 0)
(0.0323701 -0.00894644 0)
(0.0342235 -0.00194215 0)
(0.0313112 0.00440203 -3.85671e-19)
(0.0246944 0.00928187 0)
(0.0152339 0.0126244 0)
(0.00363931 0.0147327 0)
(-0.00952499 0.0160089 0)
(-0.0239256 0.0168395 2.32235e-19)
(-0.039401 0.0174963 0)
(-0.0558461 0.0181128 0)
(-0.0732105 0.0187388 0)
(-0.091469 0.0193785 0)
(-0.110605 0.0200167 1.25489e-19)
(-0.130604 0.0206266 0)
(-0.151448 0.0211778 0)
(-0.173117 0.0216359 0)
(-0.195585 0.0219686 0)
(-0.218816 0.0221486 0)
(-0.242775 0.0221616 0)
(-0.267412 0.0220164 0)
(-0.292685 0.0217486 7.27311e-20)
(-0.318549 0.0214295 -6.90667e-20)
(-0.344983 0.0211244 6.57e-20)
(-0.371986 0.0209588 6.25653e-20)
(-0.399579 0.0214483 0)
(-0.427841 0.022609 0)
(-0.45681 0.0241061 -5.52817e-20)
(-0.486311 0.0262155 -5.35617e-20)
(-0.516358 0.0293327 0)
(-0.547371 0.0317607 0)
(-0.579393 0.0332469 -5.01335e-20)
(-0.611885 0.034593 0)
(-0.644795 0.03617 0)
(-0.67787 0.0412247 4.63811e-20)
(-0.711652 0.0525058 0)
(-0.748099 0.0690733 4.53421e-20)
(-0.788134 0.0808621 8.94333e-20)
(-0.830711 0.0837357 0)
(-0.870985 0.0987012 0)
(-0.910465 0.076025 0)
(-0.950304 0.0292965 0)
(-0.982863 0.0305815 0)
(-1.01981 0.0325231 1.14767e-19)
(-1.05871 0.0338452 1.11376e-19)
(-1.09869 0.0342797 1.08204e-19)
(-1.13907 0.0343581 0)
(-1.17962 0.034235 -1.02453e-19)
(-1.2202 0.0340164 0)
(-1.26072 0.0337357 9.73936e-20)
(-1.30115 0.0334198 9.50879e-20)
(-1.34143 0.0330799 0)
(-1.38155 0.032724 0)
(-1.42149 0.0323559 0)
(-1.46123 0.0319776 8.70768e-20)
(-1.50074 0.0315898 0)
(-1.54002 0.0311922 0)
(-1.57905 0.0307843 0)
(-1.6178 0.030365 0)
(-1.65625 0.0299332 0)
(-1.69439 0.0294875 0)
(-1.73217 0.0290266 0)
(-1.76959 0.0285496 0)
(-1.8066 0.0280549 -7.38762e-20)
(-1.84319 0.0275419 0)
(-1.87931 0.0270095 0)
(-1.91493 0.0264572 7.04205e-20)
(-1.95002 0.0258841 6.93397e-20)
(-1.98454 0.0252901 0)
(-2.01846 0.0246744 -6.72672e-20)
(-2.05173 0.0240373 6.62701e-20)
(-2.08431 0.0233781 0)
(-2.11618 0.0226976 -6.43415e-20)
(-2.14728 0.0219953 0)
(-2.17758 0.0212722 0)
(-2.20703 0.020528 6.15786e-20)
(-2.2356 0.0197639 0)
(-2.26324 0.0189796 -5.9799e-20)
(-2.28992 0.0181763 0)
(-2.31559 0.0173539 5.80511e-20)
(-2.34021 0.0165135 5.71847e-20)
(-2.36374 0.0156547 5.63207e-20)
(-2.38615 0.0147784 1.10916e-19)
(-2.40739 0.0138839 -1.09189e-19)
(-2.42743 0.0129715 0)
(-2.44622 0.0120387 0)
(-2.46372 0.0110839 0)
(-2.47989 0.0101024 -1.02208e-19)
(-2.49468 0.00908848 -1.00431e-19)
(-2.50806 0.00803446 9.86373e-20)
(-2.51996 0.00693125 0)
(-2.53031 0.00576861 -9.49894e-20)
(-2.53905 0.00454135 -9.31329e-20)
(-2.54611 0.00326434 -9.12548e-20)
(-2.55138 0.00199151 0)
(-2.55476 0.000813887 0)
(-2.55616 -0.000191394 0)
(-2.55614 -0.00108308 -8.33953e-20)
(-2.55459 -0.00194988 0)
(-2.55157 -0.00280432 0)
(-2.54707 -0.00365361 7.69874e-20)
(-2.54107 -0.00449857 0)
(-2.53358 -0.00533876 0)
(-2.52457 -0.00617399 7.00829e-20)
(-2.51406 -0.00700299 0)
(-2.50202 -0.0078258 0)
(-2.48846 -0.00864116 -6.2615e-20)
(-2.47337 -0.00944926 -5.99885e-20)
(-2.45676 -0.0102487 0)
(-2.43863 -0.0110399 5.4514e-20)
(-2.41898 -0.0118212 0)
(-2.39782 -0.0125931 -4.87253e-20)
(-2.37515 -0.013354 0)
(-2.35098 -0.0141044 -4.25985e-20)
(-2.32532 -0.0148428 -3.94004e-20)
(-2.29818 -0.0155697 0)
(-2.26958 -0.0162836 0)
(-2.23954 -0.0169854 0)
(-2.20806 -0.0176739 0)
(-2.17518 -0.0183493 0)
(-2.14091 -0.0190099 0)
(-2.10527 -0.0196559 0)
(-2.06828 -0.0202857 -1.00942e-20)
(-2.02997 -0.0209007 5.90072e-21)
(-1.99037 -0.0215003 0)
(-1.94951 -0.0220865 0)
(-1.90741 -0.0226571 0)
(-1.8641 -0.0232119 0)
(-1.81962 -0.0237503 -3.44314e-20)
(-1.774 -0.0242728 0)
(-1.72728 -0.0247791 5.51993e-20)
(-1.67949 -0.0252728 -6.61363e-20)
(-1.63066 -0.0257502 0)
(-1.58085 -0.0262111 0)
(-1.53009 -0.0266563 0)
(-1.47842 -0.0270864 1.14053e-19)
(-1.42589 -0.0275015 1.27198e-19)
(-1.37253 -0.0279024 0)
(-1.31839 -0.0282889 1.55086e-19)
(-1.26352 -0.0286617 1.69896e-19)
(-1.20797 -0.0290211 -1.85335e-19)
(-1.15176 -0.0293676 0)
(-1.09496 -0.029702 0)
(-1.0376 -0.0300246 -2.35868e-19)
(-0.979733 -0.0303363 0)
(-0.921393 -0.0306376 0)
(-0.862628 -0.0309295 0)
(-0.803481 -0.0312126 0)
(-0.743994 -0.0314881 3.37576e-19)
(-0.684208 -0.0317565 3.61203e-19)
(-0.624163 -0.0320193 0)
(-0.5639 -0.032277 4.12531e-19)
(-0.503455 -0.0325312 0)
(-0.442866 -0.0327824 0)
(-0.38217 -0.0330317 5.01727e-19)
(-0.321402 -0.0332789 0)
(-0.260599 -0.0335273 5.71352e-19)
(-0.199794 -0.033785 0)
(-0.139021 -0.0340667 0)
(-0.0783208 -0.034342 6.95976e-19)
(-0.0177464 -0.0344133 0)
(0.0426314 -0.0338887 7.41454e-19)
(0.102883 -0.0329555 0)
(0.162948 -0.0320231 0)
(0.222785 -0.0311457 0)
(0.282391 -0.0303181 -6.72593e-19)
(0.341772 -0.029533 0)
(0.400926 -0.0287806 6.45213e-19)
(0.459838 -0.0280513 0)
(0.518471 -0.027331 0)
(0.576755 -0.0266004 0)
(0.63455 -0.0258273 0)
(0.691653 -0.0249529 0)
(0.747438 -0.023865 0)
(0.801598 -0.0222895 0)
(0.849237 -0.0195771 -1.13792e-18)
(0.896186 -0.0141531 0)
(0.889339 0.00310719 0)
(0.00469522 -0.0325674 1.93524e-18)
(0.0104555 -0.0326101 -1.09559e-18)
(0.0105833 -0.020487 0)
(0.00774438 -0.00710556 3.44768e-19)
(0.0024718 0.00562566 0)
(-0.00492391 0.0167977 1.34566e-19)
(-0.01444 0.0259574 -2.46347e-19)
(-0.0259838 0.033102 -2.27518e-19)
(-0.0394255 0.0385275 0)
(-0.0545657 0.0426661 -1.94536e-19)
(-0.0711821 0.0459427 -8.99948e-20)
(-0.0890937 0.0486872 0)
(-0.10817 0.0511126 0)
(-0.128318 0.0533422 0)
(-0.149475 0.0554378 0)
(-0.1716 0.0574283 -6.35356e-20)
(-0.194669 0.0593227 0)
(-0.218668 0.0611232 1.13651e-19)
(-0.243588 0.0628266 0)
(-0.269427 0.0644299 0)
(-0.296182 0.0659304 -9.88139e-20)
(-0.323861 0.0673282 0)
(-0.352469 0.0686311 9.11992e-20)
(-0.382019 0.0698533 -4.39079e-20)
(-0.412522 0.0710235 4.2347e-20)
(-0.443999 0.07217 -4.08922e-20)
(-0.47648 0.0733236 -3.95428e-20)
(-0.509951 0.0745155 0)
(-0.544393 0.0757559 0)
(-0.579806 0.0769786 3.63534e-20)
(-0.616305 0.0782083 -3.55302e-20)
(-0.653884 0.0794841 0)
(-0.692437 0.0806853 0)
(-0.731814 0.0816021 3.40213e-20)
(-0.771991 0.0821825 0)
(-0.81295 0.082422 0)
(-0.854978 0.0825182 -3.30425e-20)
(-0.897697 0.0828819 0)
(-0.939574 0.0833507 3.20965e-20)
(-0.979936 0.0831906 -6.47676e-20)
(-1.01959 0.0822232 0)
(-1.059 0.0816225 0)
(-1.10033 0.0823606 -1.3136e-19)
(-1.14259 0.0841534 -1.28974e-19)
(-1.18567 0.0863683 -1.26088e-19)
(-1.22557 0.0874314 6.14619e-20)
(-1.26381 0.0876906 -6.05423e-20)
(-1.3012 0.0874175 -1.77468e-19)
(-1.33811 0.0868011 1.15809e-19)
(-1.37465 0.0859817 5.69207e-20)
(-1.41087 0.0850389 0)
(-1.4468 0.0840202 -5.48039e-20)
(-1.48244 0.0829523 5.35289e-20)
(-1.51778 0.0818513 0)
(-1.55282 0.0807255 0)
(-1.58756 0.0795796 0)
(-1.62199 0.0784149 -5.02889e-20)
(-1.65608 0.0772312 0)
(-1.68983 0.076027 9.71688e-20)
(-1.72323 0.0748005 0)
(-1.75624 0.0735491 9.42559e-20)
(-1.78886 0.0722705 0)
(-1.82106 0.070962 -9.15231e-20)
(-1.85282 0.0696213 0)
(-1.88412 0.068246 8.89414e-20)
(-1.91492 0.0668342 -4.37228e-20)
(-1.94521 0.0653842 0)
(-1.97495 0.0638945 -8.52972e-20)
(-2.00412 0.0623643 -4.2185e-20)
(-2.03268 0.0607923 -4.16098e-20)
(-2.06061 0.0591786 0)
(-2.08787 0.0575223 -4.02658e-20)
(-2.11444 0.0558241 -3.99331e-20)
(-2.14028 0.0540836 0)
(-2.16536 0.0523021 3.88451e-20)
(-2.18965 0.0504796 -7.64241e-20)
(-2.21312 0.0486179 0)
(-2.23572 0.0467176 -3.72375e-20)
(-2.25744 0.0447807 0)
(-2.27824 0.042808 1.08358e-19)
(-2.29808 0.0408017 0)
(-2.31694 0.0387627 -1.05167e-19)
(-2.33478 0.0366935 -3.45624e-20)
(-2.35157 0.0345948 3.39048e-20)
(-2.36729 0.032469 6.67388e-20)
(-2.3819 0.0303171 -6.56589e-20)
(-2.39537 0.0281412 0)
(-2.40767 0.0259416 0)
(-2.41878 0.0237198 0)
(-2.42866 0.021475 1.83851e-19)
(-2.43731 0.0192061 6.01451e-20)
(-2.4447 0.0169119 -5.89576e-20)
(-2.45082 0.0145913 0)
(-2.45566 0.012241 -5.65339e-20)
(-2.45925 0.00985406 5.52841e-20)
(-2.4616 0.00742871 5.40221e-20)
(-2.4628 0.00498993 0)
(-2.46294 0.00261015 0)
(-2.46212 0.000376932 0)
(-2.45993 -0.00173976 4.86922e-20)
(-2.45635 -0.00381415 0)
(-2.45132 -0.00585919 -9.19275e-20)
(-2.44485 -0.00788303 -1.33462e-19)
(-2.4369 -0.0098864 8.61203e-20)
(-2.42748 -0.0118679 0)
(-2.41656 -0.0138259 4.02037e-20)
(-2.40416 -0.015758 0)
(-2.39025 -0.0176628 7.38522e-20)
(-2.37484 -0.019538 -3.55175e-20)
(-2.35793 -0.0213825 -3.38973e-20)
(-2.33951 -0.023194 0)
(-2.31959 -0.0249715 -9.07552e-20)
(-2.29817 -0.0267128 5.72136e-20)
(-2.27526 -0.028417 2.65889e-20)
(-2.25085 -0.0300819 0)
(-2.22497 -0.0317068 2.29609e-20)
(-2.19762 -0.0332895 6.3906e-20)
(-2.16881 -0.034829 0)
(-2.13856 -0.0363235 3.52254e-20)
(-2.10688 -0.037773 3.13399e-20)
(-2.07378 -0.0391762 2.73908e-20)
(-2.03929 -0.0405326 0)
(-2.00343 -0.0418395 0)
(-1.96622 -0.0430958 0)
(-1.92768 -0.044299 -5.87595e-21)
(-1.88783 -0.04545 -2.9311e-21)
(-1.84671 -0.0465477 0)
(-1.80434 -0.0475939 2.05184e-21)
(-1.76074 -0.0485876 6.516e-21)
(-1.71596 -0.0495307 0)
(-1.67001 -0.0504224 1.65614e-20)
(-1.62294 -0.0512591 4.05945e-20)
(-1.57478 -0.0520349 -2.59827e-20)
(-1.52557 -0.0527571 -2.88352e-20)
(-1.47533 -0.0534292 0)
(-1.42412 -0.0540483 0)
(-1.37198 -0.0546114 0)
(-1.31893 -0.0551205 -5.06547e-20)
(-1.26503 -0.0555766 5.36721e-20)
(-1.21032 -0.0559808 1.19808e-19)
(-1.15484 -0.0563339 -6.62267e-20)
(-1.09865 -0.0566369 6.9359e-20)
(-1.04177 -0.0568907 7.69268e-20)
(-0.984255 -0.0570966 0)
(-0.926152 -0.0572558 0)
(-0.867502 -0.0573696 -9.11878e-20)
(-0.808349 -0.0574396 0)
(-0.748738 -0.0574674 0)
(-0.688711 -0.0574548 2.18804e-19)
(-0.628312 -0.0574035 0)
(-0.567582 -0.0573155 1.19942e-19)
(-0.506564 -0.0571928 -1.28236e-19)
(-0.445297 -0.0570375 0)
(-0.383821 -0.0568518 1.37975e-19)
(-0.322175 -0.0566373 0)
(-0.260396 -0.0563963 0)
(-0.198519 -0.0561303 -1.58961e-19)
(-0.13658 -0.0558398 3.28211e-19)
(-0.074612 -0.0555258 -1.71687e-19)
(-0.012647 -0.055189 0)
(0.0492965 -0.0548281 0)
(0.111198 -0.0544407 1.80185e-19)
(0.173048 -0.0539806 0)
(0.234776 -0.05332 1.83809e-19)
(0.296302 -0.0524933 0)
(0.357624 -0.051644 0)
(0.41877 -0.0508156 0)
(0.479733 -0.0500126 1.9293e-19)
(0.540511 -0.0492291 0)
(0.601091 -0.0484554 -1.95851e-19)
(0.661455 -0.0476772 0)
(0.721559 -0.0468735 0)
(0.781331 -0.0460097 3.97353e-19)
(0.840636 -0.0450268 -3.99569e-19)
(0.899264 -0.0438114 0)
(0.956703 -0.042151 0)
(1.01254 -0.0395105 0)
(1.06384 -0.0349016 1.23008e-18)
(1.11372 -0.0249526 0)
(1.14033 -0.000942727 -8.54167e-19)
(0.000225091 -0.0409009 -7.81902e-22)
(-0.00206893 -0.0275834 1.06431e-18)
(-0.00818209 -0.00917958 0)
(-0.0162769 0.00805313 -4.35115e-19)
(-0.0258599 0.0236492 0)
(-0.0366313 0.0374839 0)
(-0.0485834 0.0494499 3.32728e-23)
(-0.0618109 0.0595392 1.34691e-19)
(-0.0763952 0.0679046 1.26682e-19)
(-0.0923561 0.0748282 1.19705e-19)
(-0.109654 0.0806394 0)
(-0.128216 0.0856451 0)
(-0.14796 0.0900911 -1.01984e-19)
(-0.168812 0.0941545 -1.94027e-19)
(-0.190712 0.0979512 1.8497e-19)
(-0.213618 0.101553 0)
(-0.237505 0.105003 1.69325e-19)
(-0.262357 0.108324 -8.13e-20)
(-0.288169 0.111529 0)
(-0.314944 0.114626 1.51027e-19)
(-0.342689 0.117618 7.297e-20)
(-0.371415 0.120512 -1.41393e-19)
(-0.40113 0.123316 -6.85157e-20)
(-0.431843 0.126044 0)
(-0.46355 0.128712 1.2943e-19)
(-0.496237 0.131336 1.25921e-19)
(-0.529867 0.133929 0)
(-0.564368 0.136497 1.19455e-19)
(-0.59962 0.139025 0)
(-0.635482 0.141466 1.13635e-19)
(-0.671834 0.143812 5.54679e-20)
(-0.708558 0.146082 0)
(-0.745538 0.148132 0)
(-0.782685 0.149771 0)
(-0.819972 0.151044 0)
(-0.857351 0.152048 0)
(-0.894679 0.153032 0)
(-0.931591 0.154031 9.70817e-20)
(-0.967504 0.154624 -1.43346e-19)
(-1.00225 0.154223 0)
(-1.03622 0.152809 0)
(-1.06976 0.151194 0)
(-1.10352 0.14814 1.00399e-22)
(-1.13807 0.144308 8.83476e-20)
(-1.17297 0.142001 1.72935e-19)
(-1.20718 0.14034 -1.69494e-19)
(-1.24069 0.138823 -8.29863e-20)
(-1.27367 0.137256 8.15707e-20)
(-1.30626 0.135603 -1.69676e-22)
(-1.33855 0.133876 7.83993e-20)
(-1.37059 0.132094 0)
(-1.40242 0.130271 7.56485e-20)
(-1.43404 0.128418 -1.60953e-22)
(-1.46545 0.126542 0)
(-1.49665 0.124643 0)
(-1.52763 0.122723 -7.07633e-20)
(-1.55839 0.120779 0)
(-1.5889 0.118808 0)
(-1.61915 0.116807 6.73695e-20)
(-1.64913 0.114771 1.33037e-19)
(-1.67882 0.112697 -6.56946e-20)
(-1.70819 0.11058 0)
(-1.73722 0.108417 6.38031e-20)
(-1.76589 0.106204 0)
(-1.79418 0.103938 6.16938e-20)
(-1.82206 0.101616 6.11245e-20)
(-1.84951 0.0992355 -1.20238e-19)
(-1.87648 0.0967954 -5.91337e-20)
(-1.90297 0.0942942 0)
(-1.92893 0.0917308 1.1527e-19)
(-1.95434 0.0891048 0)
(-1.97916 0.0864161 1.68229e-19)
(-2.00337 0.0836651 1.10487e-19)
(-2.02693 0.0808524 1.0892e-19)
(-2.04981 0.0779792 -1.07363e-19)
(-2.07197 0.0750468 1.58832e-19)
(-2.09339 0.0720572 0)
(-2.11404 0.0690121 0)
(-2.13387 0.065914 -1.01183e-19)
(-2.15286 0.0627651 -1.49549e-19)
(-2.17097 0.0595682 0)
(-2.18818 0.0563257 4.83468e-20)
(-2.20445 0.0530408 0)
(-2.21974 0.0497159 -1.40169e-19)
(-2.23404 0.0463544 -1.17666e-22)
(-2.24731 0.0429589 1.03856e-22)
(-2.25952 0.0395327 8.86104e-20)
(-2.27064 0.0360785 0)
(-2.28065 0.0325994 -8.53356e-20)
(-2.28952 0.0290984 -4.56259e-23)
(-2.29725 0.0255785 0)
(-2.3038 0.0220443 0)
(-2.30918 0.0185029 0)
(-2.31336 0.014964 7.67778e-20)
(-2.31636 0.0114411 0)
(-2.31818 0.00795339 0)
(-2.3188 0.0045236 0)
(-2.3182 0.00116105 0)
(-2.31632 -0.00216453 0)
(-2.31309 -0.00547428 6.56005e-20)
(-2.30849 -0.00875887 0)
(-2.3025 -0.0120147 6.14655e-20)
(-2.29511 -0.0152397 5.94131e-20)
(-2.28629 -0.0184309 -5.73316e-20)
(-2.27603 -0.021585 0)
(-2.26434 -0.0246982 -5.30802e-20)
(-2.25119 -0.0277673 0)
(-2.23658 -0.030789 -4.87096e-20)
(-2.22052 -0.0337603 4.64793e-20)
(-2.203 -0.0366784 1.33227e-19)
(-2.18401 -0.0395405 0)
(-2.16356 -0.0423439 1.19462e-19)
(-2.14166 -0.045086 3.79277e-20)
(-2.1183 -0.0477643 0)
(-2.0935 -0.0503763 6.56753e-20)
(-2.06725 -0.0529198 6.08323e-20)
(-2.03958 -0.0553922 -8.35003e-20)
(-2.01049 -0.0577912 0)
(-1.97999 -0.0601149 -2.25535e-20)
(-1.9481 -0.062362 -2.00052e-20)
(-1.91484 -0.064531 -5.32052e-20)
(-1.88022 -0.0666199 0)
(-1.84426 -0.068626 0)
(-1.80699 -0.0705467 0)
(-1.76842 -0.0723797 -7.90204e-21)
(-1.72857 -0.0741244 0)
(-1.68748 -0.0757802 0)
(-1.64518 -0.077348 -1.27579e-21)
(-1.60168 -0.0788282 -4.03709e-21)
(-1.55703 -0.0802216 0)
(-1.51124 -0.0815273 0)
(-1.46436 -0.0827414 -2.48735e-20)
(-1.41641 -0.0838593 0)
(-1.36743 -0.0848859 3.62533e-20)
(-1.31746 -0.0858246 4.0751e-20)
(-1.26654 -0.0866736 0)
(-1.21471 -0.0874302 0)
(-1.162 -0.0880959 -5.80764e-20)
(-1.10845 -0.0886722 -1.29986e-21)
(-1.05412 -0.0891608 -1.31343e-21)
(-0.999038 -0.0895631 0)
(-0.943252 -0.0898805 -1.64348e-19)
(-0.886805 -0.0901146 0)
(-0.82974 -0.0902674 0)
(-0.7721 -0.0903408 0)
(-0.713929 -0.0903369 1.06568e-19)
(-0.65527 -0.0902579 0)
(-0.596165 -0.0901066 -2.34183e-19)
(-0.536658 -0.0898855 -1.24446e-19)
(-0.476791 -0.0895974 0)
(-0.416604 -0.0892452 -1.36375e-19)
(-0.35614 -0.088832 0)
(-0.295439 -0.0883608 0)
(-0.234537 -0.0878349 -4.5989e-19)
(-0.173474 -0.0872569 3.17524e-19)
(-0.112286 -0.0866295 0)
(-0.051007 -0.0859558 3.41202e-19)
(0.0103327 -0.0852404 -1.7706e-19)
(0.071702 -0.084486 0)
(0.133067 -0.083693 0)
(0.194396 -0.0828583 0)
(0.255664 -0.0819852 -5.68175e-19)
(0.316861 -0.081073 0)
(0.377976 -0.080123 -1.96258e-19)
(0.438977 -0.0791409 0)
(0.499848 -0.0781447 0)
(0.560583 -0.0771565 0)
(0.621166 -0.0761797 0)
(0.681583 -0.0752086 0)
(0.74182 -0.0742315 0)
(0.80185 -0.0732294 -4.28255e-19)
(0.861634 -0.072172 0)
(0.921099 -0.0710081 -2.19766e-19)
(0.98012 -0.0696496 6.63615e-19)
(1.03851 -0.0679344 0)
(1.09584 -0.0655582 0)
(1.15182 -0.0618723 -4.54549e-19)
(1.20451 -0.0556273 -4.61376e-19)
(1.25692 -0.0438145 4.6674e-19)
(1.29677 -0.0189232 4.80846e-19)
(-0.00475424 -0.0328007 -2.97541e-18)
(-0.0126801 -0.0105161 -1.28009e-18)
(-0.022706 0.0112092 -4.64064e-19)
(-0.0343405 0.0305093 -1.65454e-19)
(-0.0469645 0.0478247 0)
(-0.0602479 0.063347 2.39531e-19)
(-0.0742359 0.077125 -1.09473e-19)
(-0.0890645 0.0891982 0)
(-0.104856 0.0996753 -9.64594e-20)
(-0.121694 0.108747 0)
(-0.13962 0.116653 1.74629e-19)
(-0.158632 0.123643 0)
(-0.178706 0.129939 7.98091e-20)
(-0.199806 0.135723 1.53002e-19)
(-0.221894 0.141128 -1.46923e-19)
(-0.244938 0.14625 0)
(-0.268911 0.151153 -1.36255e-19)
(-0.293794 0.155877 0)
(-0.319574 0.160447 0)
(-0.346238 0.164878 -1.23419e-19)
(-0.373774 0.169175 0)
(-0.402167 0.173338 -9.17713e-23)
(-0.431393 0.177361 0)
(-0.461415 0.181235 0)
(-0.492178 0.184944 1.09113e-22)
(-0.523606 0.188462 -1.04688e-19)
(-0.555598 0.191757 -1.02127e-19)
(-0.58803 0.194795 -9.94242e-20)
(-0.620762 0.197539 0)
(-0.653653 0.199956 -1.89081e-19)
(-0.686579 0.202026 0)
(-0.719432 0.203723 -9.00525e-20)
(-0.752125 0.204994 0)
(-0.784614 0.205792 0)
(-0.816896 0.206168 8.39825e-20)
(-0.84893 0.206206 0)
(-0.880619 0.205983 -8.0283e-20)
(-0.911814 0.205484 -1.00182e-23)
(-0.942434 0.204588 1.53772e-19)
(-0.97254 0.203168 -1.50617e-19)
(-1.00231 0.201211 0)
(-1.0319 0.198774 0)
(-1.06152 0.195683 -7.09805e-20)
(-1.09139 0.192294 0)
(-1.12145 0.189271 -6.82011e-20)
(-1.15141 0.186586 6.6896e-20)
(-1.18116 0.184094 6.56326e-20)
(-1.21068 0.181682 0)
(-1.23999 0.17929 -6.32423e-20)
(-1.26913 0.176896 -6.21158e-20)
(-1.29811 0.17449 1.21928e-19)
(-1.32695 0.172067 -5.99921e-20)
(-1.35564 0.169626 -5.899e-20)
(-1.3842 0.167165 0)
(-1.41261 0.164678 0)