/*--------------------------------*- C++ -*----------------------------------*\
  =========                 |
  \\      /  F ield         | OpenFOAM: The Open Source CFD Toolbox
   \\    /   O peration     | Website:  https://openfoam.org
    \\  /    A nd           | Version:  dev
     \\/     M anipulation  |
\*---------------------------------------------------------------------------*/
FoamFile
{
    format      ascii;
    class       volScalarField;
    location    "287";
    object      epsilon;
}
// * * * * * * * * * * * * * * * * * * * * * * * * * * * * * * * * * * * * * //

dimensions      [0 2 -3 0 0 0 0];

internalField   nonuniform List<scalar>
12225
(
285.516
270.697
257.922
243.802
232.472
223.072
216.825
212.693
212.742
213.942
217.25
220.853
228.103
232.711
241.296
246.676
254.057
264.189
52.4944
91.8791
106.972
114.746
124.841
136.779
152.682
169.898
191.084
210.922
235.173
255.46
280.949
299.279
324.558
339.174
364.217
373.021
20.3233
34.8565
44.6743
50.47
55.3942
59.6081
64.6601
69.6443
76.3077
83.1835
91.4167
99.3126
108.137
116.915
125.48
135.213
142.455
153.535
15.3482
19.6977
24.1121
27.5692
30.4962
32.8703
35.1532
37.2943
39.4993
41.9177
44.3315
47.1988
49.6729
53.0294
55.3973
59.2112
61.3987
65.5921
14.6508
15.8626
17.3668
19.0741
20.6378
22.0262
23.2452
24.4313
25.4429
26.5943
27.5218
28.7563
29.6293
30.9812
31.8079
33.2558
34.0664
35.628
14.7068
14.8769
15.2014
15.8668
16.5665
17.2869
17.9233
18.5841
19.1187
19.7336
20.1926
20.798
21.2073
21.8206
22.1959
22.8214
23.1744
23.8508
14.7421
14.6201
14.6248
14.737
14.9297
15.2191
15.4911
15.8088
16.0708
16.3824
16.6178
16.9197
17.1303
17.4261
17.6148
17.9103
18.0792
18.4028
14.7626
14.5866
14.4637
14.3812
14.3669
14.39
14.4381
14.5337
14.6185
14.7365
14.8307
14.9562
15.0475
15.1757
15.2605
15.3909
15.4688
15.618
14.7666
14.5908
14.4346
14.2963
14.1849
14.1044
14.0398
14.0066
13.9814
13.9785
13.9808
13.9916
14.004
14.0294
14.0469
14.0791
14.1027
14.1449
14.7663
14.5939
14.432
14.282
14.143
14.0219
13.9115
13.8194
13.737
13.6698
13.6102
13.5633
13.5181
13.4871
13.4516
13.4341
13.402
13.4005
14.7658
14.5945
14.4321
14.2803
14.1362
14.0032
13.8782
13.7644
13.6582
13.5629
13.4736
13.3952
13.3198
13.2561
13.1916
13.1408
13.0838
13.0451
14.7657
14.5943
14.4321
14.2798
14.1353
13.9999
13.8715
13.7518
13.6385
13.5337
13.4341
13.343
13.2557
13.1771
13.1003
13.0328
12.9647
12.9074
14.7657
14.5941
14.432
14.2794
14.1349
13.9989
13.8699
13.7485
13.6332
13.525
13.422
13.3257
13.2338
13.1484
13.0663
12.9906
12.9172
12.8502
14.7657
14.5939
14.4318
14.279
14.1346
13.9983
13.8692
13.7472
13.6315
13.5223
13.4184
13.3204
13.227
13.139
13.055
12.9759
12.9002
12.8291
14.7657
14.5938
14.4317
14.2787
14.1342
13.9977
13.8686
13.7464
13.6307
13.5211
13.4171
13.3185
13.2249
13.136
13.0516
12.9714
12.8951
12.8227
14.7657
14.5937
14.4315
14.2785
14.1339
13.9973
13.8681
13.7458
13.63
13.5202
13.4161
13.3174
13.2236
13.1346
13.05
12.9696
12.8931
12.8204
14.7657
14.5937
14.4315
14.2783
14.1337
13.997
13.8677
13.7453
13.6294
13.5195
13.4154
13.3165
13.2227
13.1336
13.0489
12.9684
12.8918
12.819
14.7657
14.5937
14.4314
14.2782
14.1335
13.9968
13.8674
13.7449
13.629
13.5191
13.4148
13.3159
13.222
13.1328
13.0481
12.9675
12.8908
12.8179
14.7657
14.5937
14.4314
14.2782
14.1335
13.9967
13.8673
13.7448
13.6288
13.5189
13.4146
13.3156
13.2217
13.1325
13.0477
12.967
12.8903
12.8174
14.7657
14.5937
14.4314
14.2782
14.1336
13.9968
13.8674
13.745
13.629
13.519
13.4148
13.3158
13.2219
13.1327
13.0479
12.9673
12.8906
12.8177
14.7657
14.5937
14.4315
14.2784
14.1337
13.997
13.8677
13.7453
13.6294
13.5195
13.4154
13.3166
13.2229
13.1338
13.0493
12.9689
12.8926
12.8199
14.7657
14.5937
14.4316
14.2785
14.1341
13.9974
13.8685
13.7464
13.6312
13.522
13.419
13.3213
13.2293
13.1418
13.0594
12.981
12.9073
12.8368
14.7658
14.5937
14.4318
14.2788
14.1353
14.0002
13.8742
13.756
13.6463
13.5435
13.4485
13.3591
13.277
13.1992
13.1282
13.0601
12.9988
12.9386
14.7655
14.5928
14.4328
14.2844
14.1515
14.0321
13.929
13.8375
13.7593
13.6894
13.6306
13.5769
13.5328
13.4905
13.4574
13.423
13.3989
13.3693
14.7592
14.5932
14.4603
14.3602
14.3029
14.2766
14.2805
14.2921
14.3211
14.3531
14.3959
14.4346
14.4825
14.5217
14.572
14.609
14.6617
14.694
14.7213
14.6911
14.754
14.9176
15.1828
15.4611
15.7476
16.012
16.2724
16.5039
16.7362
16.9387
17.1508
17.3311
17.5311
17.6938
17.8891
18.0362
14.7477
15.5124
16.5473
17.6841
18.7044
19.5676
20.3373
20.9969
21.6196
22.1663
22.7192
23.2111
23.7403
24.2048
24.7333
25.1833
25.7257
26.1668
15.9871
20.9921
25.0238
27.7605
29.7847
31.3586
32.7773
34.0582
35.3599
36.6169
37.9762
39.2981
40.7628
42.1472
43.7196
45.1758
46.8862
48.3612
29.9032
47.2183
54.8697
58.6737
61.6144
64.4326
67.5816
70.9789
74.7405
78.717
82.9887
87.3487
91.9103
96.4562
101.108
105.63
110.184
114.586
165.798
160.075
154.899
149.565
144.479
139.678
135.615
132.109
129.27
126.974
125.32
124.045
123.341
122.826
122.843
122.961
123.286
123.83
0.155601
0.199812
0.374133
0.528261
0.675912
0.842825
1.03729
1.26993
1.54655
1.86578
2.22116
2.60388
3.00523
3.41727
3.83342
4.24796
4.65632
5.05465
5.44025
5.81136
6.16741
6.50912
6.83804
7.15677
7.46751
7.77216
8.07096
8.36682
8.66157
8.93687
9.18826
39.9472
41.0093
41.9158
42.5889
43.5532
43.9308
44.2767
44.6226
44.1669
42.7215
41.1879
41.6899
46.093
48.6435
52.47
55.892
59.7715
63.6748
67.8207
72.1016
76.5761
81.218
86.0459
91.0543
96.2517
101.637
107.217
112.992
118.965
125.138
131.514
138.092
144.876
151.864
159.059
166.458
174.063
181.869
189.877
198.083
206.485
215.078
223.859
232.821
241.961
251.27
260.744
270.372
280.148
290.062
300.106
310.266
320.535
330.898
341.345
351.858
362.428
373.034
383.661
394.289
404.895
415.455
425.942
436.332
446.601
456.738
466.763
476.758
486.569
496.259
505.784
515.146
524.32
533.295
542.055
550.583
558.866
566.888
574.637
582.097
589.256
596.1
602.619
608.798
614.63
620.101
625.203
629.928
634.268
638.215
641.762
644.901
647.628
649.939
651.832
653.3
654.335
655.004
655.286
655.073
654.392
653.266
651.828
650.047
647.795
645.17
642.16
638.78
635.039
630.948
626.519
621.765
616.693
611.317
605.65
599.705
593.498
587.042
580.352
573.443
566.331
559.031
551.558
543.928
536.158
528.263
520.261
512.169
504.009
495.813
487.653
479.981
475.192
471.98
468.874
465.742
462.573
459.374
456.149
452.902
449.634
446.34
443.003
439.588
436.015
432.125
427.472
421.172
396.109
0.802296
0.499884
0.50739
0.574222
0.676992
0.810652
0.977459
1.17977
1.41796
1.68965
1.99041
2.31486
2.65774
3.01421
3.38029
3.7527
4.12912
4.50822
4.88994
5.27581
5.66936
6.07683
6.50782
6.97697
7.5058
8.12721
8.89162
9.88009
11.2257
13.1489
16.0142
20.4201
21.2382
21.7885
22.2303
22.5631
22.6358
22.8452
23.2639
23.8555
24.7178
26.0119
27.2983
29.0895
30.747
32.5421
34.3328
36.213
38.1387
40.1374
42.1987
44.3309
46.5321
48.8054
51.1509
53.5703
56.0641
58.6333
61.2783
63.9998
66.7979
69.673
72.6249
75.6538
78.7591
81.9406
85.1974
88.5289
91.9341
95.4117
98.9604
102.579
106.264
110.016
113.831
117.707
121.641
125.631
129.673
133.764
137.9
142.077
146.292
150.54
154.816
159.115
163.431
167.759
172.092
176.424
180.747
185.053
189.335
193.588
197.806
201.99
206.153
210.319
214.549
218.707
222.817
226.867
230.852
234.765
238.601
242.354
246.018
249.587
253.056
256.418
259.669
262.803
265.815
268.7
271.454
274.071
276.548
278.881
281.066
283.1
284.979
286.7
288.261
289.658
290.891
291.958
292.858
293.591
294.162
294.563
294.777
294.812
294.679
294.403
293.976
293.371
292.607
291.685
290.607
289.378
288.001
286.48
284.818
283.02
281.09
279.033
276.854
274.558
272.15
269.635
267.021
264.311
261.512
258.63
255.671
252.642
249.548
246.396
243.194
239.949
236.675
233.401
230.248
227.641
225.394
223.216
221.043
218.866
216.684
214.499
212.314
210.133
207.957
205.788
203.625
201.472
199.312
197.205
195.112
191.645
1.72087
0.891344
0.805122
0.840076
0.926767
1.05291
1.2161
1.41564
1.64995
1.91596
2.20943
2.5257
2.8604
3.20983
3.57108
3.94209
4.32164
4.70948
5.10645
5.51482
5.93862
6.3842
6.86081
7.3816
7.96431
8.63236
9.41437
10.3424
11.4446
12.7268
14.1353
15.5085
16.2983
16.983
17.6508
18.3242
19.0227
19.8136
20.7106
21.7194
22.8412
24.0523
25.3579
26.7449
28.1588
29.6281
31.143
32.7135
34.336
36.0135
37.7453
39.5328
41.3761
43.2763
45.2335
47.2486
49.3218
51.4537
53.6445
55.8947
58.2042
60.5731
63.0014
65.4889
68.0353
70.6404
73.3035
76.0242
78.8017
81.635
84.5232
87.4652
90.4594
93.5046
96.599
99.7407
102.928
106.158
109.43
112.739
116.085
119.463
122.87
126.304
129.761
133.236
136.727
140.229
143.737
147.248
150.758
154.262
157.756
161.24
164.71
168.17
171.621
175.069
178.504
181.898
185.25
188.555
191.809
195.004
198.138
201.204
204.198
207.116
209.952
212.702
215.361
217.925
220.391
222.752
225.007
227.151
229.181
231.093
232.885
234.553
236.096
237.509
238.792
239.942
240.958
241.838
242.583
243.191
243.663
243.994
244.171
244.214
244.124
243.905
243.556
243.07
242.453
241.705
240.832
239.833
238.714
237.477
236.125
234.661
233.09
231.414
229.639
227.769
225.807
223.758
221.627
219.418
217.137
214.787
212.375
209.905
207.381
204.811
202.198
199.551
196.879
194.202
191.578
189.144
186.86
184.629
182.413
180.203
177.997
175.798
173.608
171.431
169.271
167.133
165.024
162.961
160.957
159.106
157.448
155.822
2.78237
1.33381
1.1436
1.14679
1.2257
1.35263
1.51949
1.72295
1.96037
2.22853
2.52367
2.84186
3.17948
3.53357
3.90194
4.2832
4.67672
5.08263
5.50187
5.93627
6.38865
6.86302
7.36475
7.90077
8.47955
9.11096
9.80508
10.57
11.4072
12.3047
13.2299
14.1313
14.9598
15.7859
16.6371
17.5247
18.4581
19.4496
20.5054
21.6248
22.8069
24.0441
25.3332
26.6628
28.0321
29.4458
30.9057
32.4144
33.9731
35.5828
37.2442
38.958
40.7249
42.5456
44.4206
46.3505
48.3356
50.3765
52.4737
54.6274
56.838
59.1057
61.4306
63.8128
66.2521
68.7486
71.3019
73.9116
76.5772
79.2981
82.0735
84.9024
87.7838
90.7164
93.6988
96.7294
99.8064
102.928
106.092
109.295
112.537
115.813
119.121
122.458
125.82
129.204
132.608
136.026
139.455
142.892
146.333
149.774
153.213
156.646
160.072
163.488
166.894
170.285
173.649
176.976
180.263
183.503
186.692
189.823
192.893
195.896
198.827
201.681
204.454
207.14
209.736
212.236
214.637
216.935
219.125
221.205
223.169
225.017
226.743
228.346
229.823
231.171
232.389
233.474
234.425
235.242
235.923
236.468
236.878
237.142
237.254
237.249
237.105
236.83
236.423
235.884
235.215
234.419
233.498
232.455
231.294
230.017
228.628
227.13
225.528
223.825
222.026
220.134
218.155
216.092
213.951
211.736
209.452
207.103
204.695
202.233
199.722
197.166
194.572
191.947
189.299
186.644
184.016
181.473
179.009
176.586
174.18
171.787
169.404
167.034
164.681
162.349
160.043
157.769
155.538
153.367
151.287
149.385
147.707
146.243
3.855
1.78871
1.48975
1.46059
1.52837
1.65301
1.82091
2.02624
2.26532
2.53482
2.8313
3.1514
3.49207
3.85086
4.22597
4.61635
5.0216
5.44194
5.87812
6.33146
6.80372
7.29723
7.81472
8.35949
8.93522
9.54601
10.196
10.8887
11.6255
12.4036
13.2142
14.0465
14.897
15.7781
16.6975
17.6585
18.6635
19.7147
20.8128
21.9565
23.1448
24.3764
25.6518
26.9766
28.3464
29.7621
31.2251
32.737
34.2991
35.9127
37.5788
39.2984
41.0723
42.9017
44.7875
46.7302
48.7303
50.7885
52.9057
55.0823
57.3189
59.6161
61.9742
64.3935
66.8744
69.4169
72.021
74.6866
77.4135
80.2011
83.0491
85.9565
88.9225
91.946
95.0258
98.1602
101.348
104.586
107.874
111.208
114.587
118.006
121.465
124.958
128.483
132.037
135.616
139.215
142.831
146.46
150.098
153.741
157.385
161.027
164.66
168.282
171.886
175.466
179.016
182.527
185.995
189.413
192.776
196.078
199.313
202.476
205.561
208.563
211.477
214.297
217.019
219.637
222.148
224.546
226.827
228.988
231.025
232.934
234.713
236.358
237.866
239.235
240.464
241.55
242.491
243.288
243.938
244.443
244.8
244.994
245.047
244.963
244.733
244.361
243.849
243.197
242.407
241.483
240.428
239.244
237.936
236.508
234.962
233.303
231.536
229.664
227.693
225.628
223.473
221.233
218.913
216.518
214.055
211.527
208.94
206.3
203.612
200.881
198.114
195.318
192.5
189.673
186.859
184.089
181.365
178.672
176
173.343
170.704
168.085
165.49
162.923
160.392
157.906
155.476
153.127
150.891
148.843
147.02
145.381
4.88151
2.23131
1.82452
1.76253
1.81699
1.93672
2.10288
2.30732
2.54538
2.81349
3.10845
3.42729
3.7674
4.12669
4.50364
4.89738
5.30761
5.73454
6.17884
6.64156
7.12403
7.62791
8.15502
8.70744
9.28733
9.89706
10.539
11.2155
11.9283
12.6781
13.4639
14.2845
15.1405
16.035
16.9704
17.9481
18.9691
20.0341
21.1434
22.297
23.4952
24.7389
26.0293
27.368
28.7551
30.1914
31.6782
33.2168
34.8086
36.4549
38.1571
39.9163
41.7337
43.6104
45.5473
47.5459
49.6072
51.7326
53.9229
56.1793
58.5025
60.8935
63.353
65.8817
68.4801
71.1486
73.8875
76.697
79.5771
82.5274
85.5477
88.6372
91.7953
95.0208
98.3125
101.669
105.088
108.568
112.107
115.702
119.35
123.048
126.793
130.582
134.41
138.274
142.169
146.092
150.037
154
157.975
161.959
165.946
169.93
173.906
177.867
181.808
185.72
189.598
193.434
197.221
200.953
204.623
208.226
211.753
215.2
218.559
221.825
224.991
228.053
231.003
233.838
236.55
239.137
241.593
243.913
246.094
248.132
250.023
251.764
253.352
254.786
256.062
257.179
258.135
258.93
259.563
260.035
260.336
260.463
260.444
260.264
259.925
259.43
258.78
257.977
257.025
255.926
254.685
253.305
251.79
250.144
248.373
246.481
244.474
242.355
240.131
237.807
235.388
232.881
230.291
227.624
224.885
222.081
219.217
216.299
213.334
210.327
207.285
204.215
201.124
198.024
194.93
191.86
188.821
185.808
182.817
179.848
176.901
173.981
171.092
168.241
165.435
162.685
160.005
157.42
154.963
152.698
150.644
148.71
5.82406
2.64453
2.13455
2.03951
2.07897
2.19148
2.35331
2.55415
2.78833
3.05202
3.34213
3.65596
3.99125
4.34618
4.71946
5.11036
5.51863
5.94453
6.38867
6.85201
7.33574
7.84132
8.37032
8.92445
9.50549
10.1154
10.756
11.4293
12.137
12.8807
13.6612
14.4795
15.3367
16.2344
17.1739
18.1563
19.1827
20.2541
21.3712
22.5348
23.7458
25.0055
26.315
27.6756
29.0886
30.5549
32.0761
33.6536
35.289
36.9839
38.7398
40.5583
42.441
44.3895
46.4052
48.4898
50.6448
52.8719
55.1724
57.5478
59.9993
62.5283
65.1358
67.823
70.5907
73.4397
76.3705
79.3836
82.4792
85.6572
88.9175
92.2594
95.6824
99.1853
102.767
106.425
110.159
113.966
117.843
121.787
125.796
129.866
133.993
138.173
142.401
146.674
150.986
155.331
159.705
164.102
168.515
172.94
177.368
181.795
186.212
190.612
194.988
199.332
203.635
207.891
212.092
216.23
220.298
224.287
228.192
232.004
235.716
239.321
242.813
246.184
249.428
252.54
255.513
258.341
261.021
263.546
265.912
268.115
270.152
272.018
273.712
275.229
276.568
277.728
278.707
279.504
280.119
280.551
280.786
280.844
280.728
280.432
279.961
279.314
278.496
277.509
276.357
275.044
273.573
271.951
270.181
268.269
266.22
264.04
261.735
259.311
256.773
254.129
251.385
248.547
245.621
242.615
239.534
236.386
233.178
229.915
226.604
223.253
219.867
216.455
213.024
209.583
206.146
202.724
199.326
195.953
192.603
189.28
185.986
182.725
179.504
176.33
173.21
170.158
167.188
164.326
161.603
159.072
156.734
154.456
6.65602
3.01542
2.4099
2.28229
2.30549
2.4088
2.56399
2.75871
2.98642
3.24295
3.52522
3.83076
4.15757
4.50408
4.86921
5.25237
5.65339
6.07256
6.51054
6.96832
7.44707
7.94821
8.47326
9.02385
9.60136
10.2078
10.845
11.5148
12.219
12.9591
13.7367
14.553
15.4096
16.3076
17.2487
18.234
19.2648
20.3425
21.4683
22.6436
23.8695
25.1475
26.4792
27.8661
29.3096
30.8116
32.3737
33.9979
35.686
37.44
39.2619
41.1536
43.1173
45.1549
47.2685
49.4601
51.7318
54.0856
56.5234
59.0472
61.6587
64.3596
67.1516
70.0361
73.0144
76.0876
79.2566
82.5221
85.8845
89.344
92.9006
96.5537
100.303
104.146
108.083
112.112
116.23
120.435
124.724
129.094
133.54
138.06
142.648
147.299
152.009
156.772
161.582
166.432
171.317
176.23
181.163
186.109
191.06
196.008
200.945
205.862
210.75
215.6
220.404
225.153
229.838
234.45
238.981
243.421
247.763
251.998
256.117
260.114
263.979
267.705
271.286
274.714
277.983
281.086
284.018
286.773
289.346
291.733
293.93
295.933
297.739
299.345
300.749
301.95
302.946
303.736
304.321
304.695
304.854
304.819
304.583
304.146
303.513
302.685
301.666
300.459
299.07
297.503
295.763
293.856
291.787
289.563
287.189
284.674
282.023
279.243
276.341
273.326
270.204
266.982
263.669
260.271
256.796
253.252
249.645
245.984
242.276
238.528
234.747
230.941
227.119
223.288
219.46
215.645
211.851
208.082
204.341
200.632
196.958
193.325
189.74
186.211
182.747
179.362
176.07
172.897
169.872
167.038
164.38
161.737
7.36127
3.33565
2.64435
2.48528
2.49145
2.58387
2.7304
2.91687
3.1359
3.383
3.65508
3.94981
4.26541
4.60055
4.95436
5.32642
5.71664
6.12506
6.55271
7.00071
7.47029
7.96292
8.48025
9.02421
9.59611
10.1973
10.8296
11.4945
12.194
12.9298
13.7034
14.5165
15.3705
16.2671
17.2079
18.1943
19.228
20.3107
21.4441
22.6301
23.8708
25.1692
26.5261
27.943
29.4212
30.9635
32.5724
34.2502
35.9995
37.8225
39.7217
41.6997
43.759
45.9022
48.1319
50.4507
52.8612
55.366
57.9675
60.6682
63.4705
66.3765
69.3884
72.5079
75.7369
79.0768
82.5289
86.094
89.7729
93.5658
97.4727
101.493
105.627
109.872
114.226
118.689
123.257
127.927
132.697
137.561
142.515
147.556
152.676
157.872
163.136
168.461
173.841
179.269
184.736
190.234
195.756
201.291
206.832
212.367
217.888
223.384
228.846
234.262
239.624
244.92
250.141
255.277
260.318
265.253
270.074
274.77
279.333
283.752
288.021
292.129
296.069
299.833
303.415
306.806
310.001
312.994
315.779
318.352
320.708
322.844
324.755
326.44
327.897
329.123
330.118
330.882
331.414
331.706
331.769
331.607
331.22
330.61
329.781
328.736
327.479
326.016
324.35
322.489
320.438
318.203
315.792
313.212
310.47
307.574
304.532
301.352
298.041
294.609
291.064
287.414
283.668
279.834
275.92
271.936
267.888
263.786
259.638
255.451
251.233
246.993
242.739
238.479
234.224
229.982
225.763
221.57
217.41
213.288
209.208
205.178
201.204
197.295
193.461
189.717
186.078
182.567
179.211
176.045
173.041
170.022
7.9312
3.60081
2.83524
2.64558
2.63513
2.71528
2.85144
3.02789
3.23646
3.47237
3.73249
4.01463
4.31714
4.63871
4.97898
5.338
5.7163
6.11482
6.53329
6.97243
7.43338
7.91747
8.42614
8.96076
9.52301
10.1146
10.7374
11.3934
12.0844
12.8123
13.5789
14.3861
15.2355
16.1292
17.0689
18.0566
19.0944
20.1842
21.3282
22.5287
23.7875
25.1066
26.4887
27.9366
29.4541
31.0429
32.706
34.4466
36.2676
38.1719
40.1626
42.2427
44.4155
46.684
49.0516
51.5215
54.0969
56.7809
59.5768
62.4874
65.5158
68.6646
71.9365
75.3337
78.8583
82.5123
86.297
90.2137
94.263
98.4454
102.761
107.209
111.788
116.497
121.334
126.297
131.382
136.585
141.902
147.33
152.861
158.491
164.213
170.02
175.905
181.859
187.875
193.944
200.055
206.201
212.369
218.551
224.736
230.911
237.067
243.19
249.271
255.297
261.256
267.137
272.928
278.619
284.197
289.653
294.974
300.15
305.171
310.027
314.708
319.204
323.507
327.608
331.499
335.173
338.623
341.843
344.827
347.57
350.067
352.314
354.308
356.047
357.529
358.752
359.716
360.421
360.865
361.046
360.974
360.647
360.07
359.247
358.182
356.879
355.343
353.579
351.595
349.397
346.991
344.387
341.591
338.612
335.459
332.14
328.665
325.042
321.281
317.392
313.384
309.266
305.048
300.739
296.35
291.888
287.364
282.786
278.162
273.503
268.816
264.11
259.393
254.674
249.963
245.268
240.599
235.961
231.361
226.805
222.3
217.852
213.469
209.161
204.939
200.817
196.81
192.94
189.23
185.711
182.343
178.944
8.36474
3.80946
2.98204
2.76378
2.73717
2.80421
2.92874
3.09376
3.29053
3.51398
3.76073
4.0292
4.31851
4.62865
4.958
5.30602
5.67259
6.05759
6.46192
6.88698
7.33404
7.80448
8.29972
8.82131
9.37107
9.95102
10.563
11.2088
11.8904
12.6097
13.3689
14.1699
15.015
15.9062
16.846
17.8365
18.8803
19.9799
21.1378
22.3568
23.6396
24.9891
26.4084
27.9008
29.4677
31.113
32.8422
34.6597
36.5688
38.5729
40.6758
42.881
45.1925
47.614
50.1497
52.8033
55.5787
58.4798
61.5104
64.674
67.9741
71.414
74.9967
78.7249
82.601
86.627
90.8047
95.1351
99.6191
104.257
109.048
113.992
119.087
124.331
129.722
135.256
140.929
146.736
152.673
158.734
164.911
171.199
177.588
184.072
190.64
197.284
203.994
210.758
217.567
224.409
231.272
238.144
245.013
251.865
258.689
265.47
272.197
278.855
285.431
291.913
298.287
304.542
310.663
316.64
322.461
328.112
333.583
338.864
343.942
348.809
353.455
357.87
362.046
365.975
369.65
373.065
376.213
379.089
381.689
384.009
386.046
387.797
389.26
390.436
391.323
391.923
392.234
392.259
392.002
391.462
390.648
389.565
388.216
386.608
384.745
382.635
380.286
377.705
374.901
371.882
368.659
365.239
361.633
357.85
353.902
349.799
345.55
341.167
336.661
332.041
327.318
322.503
317.607
312.638
307.608
302.526
297.401
292.244
287.062
281.866
276.663
271.464
266.277
261.111
255.975
250.877
245.822
240.819
235.874
230.995
226.191
221.471
216.847
212.333
207.944
203.7
199.622
195.735
191.993
188.214
8.66737
3.96309
3.08649
2.84278
2.80043
2.85388
2.96586
3.11832
3.30246
3.51369
3.74961
4.00717
4.28457
4.58015
4.89372
5.22558
5.57605
5.94573
6.33588
6.74729
7.18107
7.63855
8.12122
8.63075
9.16893
9.7377
10.3391
10.9751
11.6479
12.3598
13.1132
13.9104
14.754
15.6466
16.5908
17.5897
18.6461
19.7632
20.9439
22.1917
23.51
24.903
26.373
27.9222
29.5542
31.2772
33.0953
35.0135
37.0379
39.1719
41.4198
43.786
46.275
48.8915
51.6402
54.5256
57.5524
60.7251
64.0479
67.525
71.1603
74.9576
78.92
83.0507
87.3519
91.8259
96.4742
101.298
106.297
111.471
116.821
122.343
128.036
133.897
139.922
146.107
152.447
158.935
165.566
172.332
179.225
186.236
193.356
200.575
207.882
215.267
222.717
230.22
237.765
245.337
252.923
260.51
268.083
275.628
283.13
290.576
297.949
305.237
312.423
319.494
326.435
333.234
339.875
346.346
352.634
358.726
364.61
370.275
375.708
380.899
385.839
390.517
394.925
399.055
402.899
406.451
409.705
412.656
415.299
417.63
419.647
421.349
422.733
423.799
424.549
424.982
425.101
424.911
424.407
423.596
422.487
421.087
419.4
417.432
415.191
412.684
409.92
406.909
403.66
400.183
396.488
392.586
388.487
384.204
379.747
375.128
370.359
365.451
360.416
355.266
350.013
344.667
339.239
333.742
328.185
322.579
316.935
311.262
305.569
299.868
294.166
288.473
282.799
277.151
271.54
265.972
260.456
254.999
249.609
244.293
239.061
233.923
228.891
223.978
219.199
214.574
210.118
205.855
201.736
197.583
8.85122
4.06621
3.15229
2.88653
2.82916
2.86886
2.96852
3.11049
3.28441
3.48428
3.70592
3.94789
4.20921
4.48937
4.78839
5.10613
5.44287
5.79924
6.17612
6.57457
6.99579
7.44121
7.91241
8.41117
8.93941
9.49922
10.0928
10.7224
11.3907
12.1001
12.8536
13.6541
14.5044
15.4077
16.3673
17.3867
18.4699
19.6208
20.8426
22.1386
23.512
24.9637
26.5021
28.1342
29.8665
31.7039
33.6518
35.7158
37.9022
40.2162
42.663
45.2479
47.9763
50.8538
53.8856
57.077
60.4332
63.9591
67.6595
71.5388
75.6013
79.8506
84.29
88.9223
93.7498
98.7741
103.996
109.416
115.034
120.848
126.857
133.058
139.447
146.02
152.771
159.696
166.787
174.037
181.437
188.978
196.651
204.444
212.348
220.349
228.436
236.595
244.814
253.078
261.372
269.682
277.994
286.29
294.557
302.777
310.936
319.017
327.003
334.88
342.632
350.243
357.698
364.982
372.081
378.981
385.668
392.128
398.35
404.32
410.028
415.463
420.613
425.47
430.025
434.269
438.196
441.798
445.071
448.009
450.608
452.866
454.779
456.347
457.569
458.446
458.978
459.168
459.024
458.54
457.715
456.564
455.095
453.314
451.226
448.839
446.161
443.202
439.972
436.481
432.74
428.76
424.552
420.129
415.502
410.683
405.686
400.522
395.205
389.748
384.162
378.462
372.658
366.764
360.791
354.751
348.655
342.516
336.342
330.146
323.937
317.725
311.519
305.33
299.166
293.036
286.949
280.913
274.937
269.028
263.194
257.443
251.786
246.231
240.792
235.48
230.311
225.303
220.468
215.83
211.336
206.818
8.91122
4.11862
3.1819
2.89867
2.82873
2.8584
2.94778
3.07696
3.23657
3.42165
3.62937
3.85794
4.10615
4.37338
4.65952
4.96467
5.28926
5.63397
5.99976
6.38776
6.79934
7.23607
7.69974
8.19237
8.71618
9.27355
9.86695
10.4991
11.1729
11.8915
12.6584
13.4779
14.353
15.2871
16.2841
17.3476
18.4804
19.6847
20.9682
22.337
23.7972
25.3564
27.0196
28.7936
30.6853
32.7008
34.847
37.1308
39.5588
42.1371
44.8724
47.7713
50.8402
54.0851
57.512
61.1263
64.9334
68.9384
73.146
77.5603
82.1854
87.0242
92.0795
97.3532
102.846
108.56
114.493
120.644
127.012
133.594
140.386
147.384
154.581
161.972
169.55
177.306
185.232
193.317
201.553
209.927
218.428
227.043
235.759
244.563
253.44
262.376
271.355
280.362
289.38
298.395
307.388
316.345
325.247
334.077
342.82
351.457
359.972
368.348
376.57
384.62
392.484
400.145
407.59
414.803
421.77
428.479
434.917
441.071
446.929
452.482
457.718
462.629
467.206
471.441
475.328
478.86
482.032
484.84
487.281
489.351
491.051
492.378
493.333
493.919
494.137
493.995
493.493
492.618
491.393
489.824
487.919
485.684
483.126
480.255
477.08
473.612
469.863
465.843
461.564
457.039
452.28
447.3
442.113
436.73
431.168
425.437
419.554
413.53
407.38
401.118
394.755
388.306
381.783
375.197
368.563
361.89
355.19
348.474
341.752
335.036
328.333
321.655
315.01
308.407
301.855
295.362
288.937
282.587
276.32
270.146
264.074
258.113
252.276
246.574
241.023
235.638
230.432
225.425
220.565
215.701
8.89313
4.12894
3.18178
2.8891
2.80954
2.82628
2.90209
3.01848
3.16604
3.33938
3.53548
3.75258
3.98967
4.24628
4.52237
4.81823
5.13448
5.472
5.83191
6.21554
6.62448
7.06059
7.52602
8.02325
8.55532
9.12533
9.73582
10.39
11.0913
11.8432
12.6488
13.5097
14.4317
15.4209
16.483
17.6237
18.8495
20.1673
21.5827
23.1025
24.7344
26.4864
28.3658
30.3801
32.5372
34.8447
37.3103
39.9421
42.7476
45.7344
48.9104
52.2835
55.8612
59.6495
63.6536
67.8783
72.3284
77.008
81.9205
87.0691
92.456
98.0827
103.95
110.058
116.405
122.989
129.809
136.859
144.136
151.635
159.348
167.268
175.389
183.7
192.192
200.854
209.676
218.646
227.751
236.977
246.312
255.741
265.249
274.821
284.441
294.094
303.762
313.43
323.08
332.696
342.26
351.754
361.162
370.466
379.648
388.691
397.579
406.294
414.82
423.141
431.241
439.105
446.718
454.066
461.136
467.914
474.389
480.547
486.379
491.874
497.023
501.817
506.247
510.307
513.992
517.295
520.212
522.74
524.875
526.618
527.966
528.923
529.483
529.658
529.454
528.864
527.883
526.53
524.811
522.734
520.309
517.542
514.442
511.02
507.287
503.254
498.933
494.338
489.48
484.373
479.031
473.467
467.695
461.73
455.586
449.277
442.818
436.223
429.507
422.683
415.765
408.767
401.701
394.581
387.419
380.227
373.015
365.797
358.581
351.378
344.199
337.052
329.947
322.893
315.898
308.971
302.119
295.35
288.673
282.097
275.63
269.283
263.067
256.994
251.077
245.332
239.769
234.409
229.2
224.012
8.83513
4.11908
3.16555
2.8603
2.76847
2.77424
2.83961
2.94581
3.08345
3.24742
3.43489
3.64424
3.87466
4.12587
4.39804
4.69178
5.00815
5.34888
5.71533
6.10899
6.53189
6.98638
7.47499
8.0002
8.56391
9.16814
9.81883
10.521
11.2797
12.1
12.9877
13.9501
14.9926
16.1217
17.3448
18.6696
20.1046
21.6585
23.3397
25.157
27.1198
29.2372
31.5186
33.9731
36.6096
39.4369
42.4632
45.6956
49.1406
52.8082
56.7076
60.8482
65.2415
69.8887
74.791
79.9504
85.3684
91.046
96.9837
103.181
109.637
116.348
123.313
130.527
137.985
145.682
153.61
161.763
170.133
178.711
187.486
196.449
205.59
214.895
224.354
233.954
243.68
253.521
263.461
273.486
283.581
293.732
303.921
314.135
324.355
334.567
344.754
354.898
364.983
374.992
384.908
394.714
404.393
413.928
423.302
432.499
441.502
450.295
458.863
467.19
475.26
483.061
490.577
497.796
504.705
511.293
517.546
523.456
529.011
534.202
539.022
543.462
547.515
551.176
554.439
557.301
559.756
561.805
563.443
564.674
565.492
565.912
565.907
565.543
564.745
563.555
561.978
560.02
557.69
554.996
551.95
548.556
544.826
540.773
536.407
531.742
526.79
521.565
516.08
510.35
504.388
498.209
491.829
485.261
478.52
471.622
464.582
457.414
450.133
442.753
435.288
427.752
420.158
412.52
404.849
397.158
389.458
381.76
374.075
366.413
358.783
351.196
343.66
336.183
328.775
321.442
314.192
307.034
299.976
293.025
286.191
279.483
272.913
266.492
260.233
254.149
248.249
242.557
237.019
231.536
8.71608
4.08544
3.12912
2.81649
2.71799
2.71724
2.77665
2.87791
3.01189
3.17384
3.36145
3.57371
3.80979
4.06973
4.35407
4.66369
4.99948
5.36172
5.75259
6.17584
6.6349
7.13344
7.67552
8.26569
8.90954
9.61325
10.382
11.2226
12.1423
13.1493
14.2523
15.4608
16.7842
18.2322
19.8151
21.5439
23.4299
25.4846
27.7194
30.1456
32.7743
35.6161
38.6814
41.9797
45.5204
49.3117
53.3603
57.6723
62.2535
67.1099
72.2472
77.6725
83.3904
89.3934
95.6774
102.238
109.071
116.17
123.531
131.146
139.007
147.108
155.44
163.994
172.759
181.727
190.886
200.226
209.736
219.403
229.216
239.162
249.23
259.407
269.678
280.032
290.455
300.932
311.451
321.997
332.555
343.112
353.653
364.162
374.626
385.029
395.356
405.592
415.721
425.727
435.597
445.313
454.861
464.225
473.391
482.342
491.065
499.545
507.768
515.719
523.386
530.755
537.813
544.55
550.954
557.015
562.723
568.067
573.039
577.631
581.836
585.648
589.06
592.067
594.669
596.858
598.633
599.996
600.936
601.474
601.579
601.312
600.614
599.508
598.002
596.104
593.82
591.157
588.125
584.735
580.994
576.912
572.499
567.77
562.735
557.409
551.805
545.936
539.818
533.465
526.89
520.109
513.137
505.989
498.681
491.226
483.641
475.94
468.138
460.249
452.287
444.265
436.197
428.096
419.974
411.842
403.712
395.595
387.501
379.44
371.421
363.454
355.546
347.706
339.942
332.261
324.671
317.178
309.791
302.517
295.366
288.346
281.469
274.744
268.183
261.801
255.604
249.616
243.785
238.049
8.59577
4.03246
3.08409
2.77288
2.6748
2.67543
2.73869
2.84619
2.98895
3.16234
3.36359
3.5906
3.84481
4.12747
4.44026
4.78534
5.16557
5.58496
6.04741
6.55739
7.12046
7.74303
8.4324
9.19675
10.0452
10.9877
12.0343
13.1964
14.4864
15.9175
17.5034
19.2583
21.1968
23.3334
25.6832
28.2606
31.0796
34.1532
37.4938
41.113
45.0212
49.2259
53.7334
58.5487
63.6768
69.1195
74.8752
80.9422
87.3202
94.007
100.998
108.303
115.881
123.724
131.819
140.155
148.719
157.499
166.483
175.657
185.01
194.529
204.202
214.017
223.962
234.026
244.198
254.465
264.816
275.24
285.727
296.265
306.842
317.449
328.074
338.706
349.334
359.946
370.532
381.079
391.577
402.014
412.378
422.657
432.838
442.91
452.86
462.675
472.343
481.85
491.184
500.331
509.279
518.014
526.523
534.793
542.812
550.567
558.045
565.235
572.125
578.702
584.958
590.88
596.46
601.69
606.559
611.061
615.186
618.927
622.281
625.242
627.802
629.958
631.716
633.061