/*--------------------------------*- C++ -*----------------------------------*\
  =========                 |
  \\      /  F ield         | OpenFOAM: The Open Source CFD Toolbox
   \\    /   O peration     | Website:  https://openfoam.org
    \\  /    A nd           | Version:  dev
     \\/     M anipulation  |
\*---------------------------------------------------------------------------*/
FoamFile
{
    format      ascii;
    class       volScalarField;
    location    "287";
    object      p;
}
// * * * * * * * * * * * * * * * * * * * * * * * * * * * * * * * * * * * * * //

dimensions      [0 2 -2 0 0 0 0];

internalField   nonuniform List<scalar>
12225
(
-1.31183
-3.49981
-4.59992
-4.92074
-5.10222
-5.27154
-5.40343
-5.49907
-5.5763
-5.64448
-5.70549
-5.76166
-5.81319
-5.86192
-5.90844
-5.94901
-6.00017
-5.98394
-4.47419
-5.24304
-5.40362
-5.31155
-5.29924
-5.36738
-5.44529
-5.51151
-5.57174
-5.62996
-5.68557
-5.73776
-5.78731
-5.83463
-5.88082
-5.92312
-5.9716
-6.00967
-4.87483
-4.86065
-4.98816
-5.0667
-5.16181
-5.28226
-5.38986
-5.47516
-5.54759
-5.61369
-5.67477
-5.73092
-5.78366
-5.83345
-5.88187
-5.92712
-5.97794
-6.02316
-4.75344
-4.69682
-4.93856
-5.09704
-5.19899
-5.30545
-5.4035
-5.48399
-5.55332
-5.61713
-5.67661
-5.73178
-5.78386
-5.83328
-5.88145
-5.92771
-5.97718
-6.02538
-4.74351
-4.76789
-4.99605
-5.13775
-5.22156
-5.31386
-5.40542
-5.48356
-5.55166
-5.61456
-5.67353
-5.72856
-5.78065
-5.83033
-5.87877
-5.92596
-5.97481
-6.02433
-4.80159
-4.8504
-5.02474
-5.14877
-5.23046
-5.31852
-5.40688
-5.48379
-5.55126
-5.61359
-5.67215
-5.72702
-5.77902
-5.82875
-5.87719
-5.92464
-5.97282
-6.02177
-4.86189
-4.90604
-5.04128
-5.15771
-5.24162
-5.32597
-5.41018
-5.48518
-5.55172
-5.61329
-5.67124
-5.72577
-5.77752
-5.82712
-5.87535
-5.92262
-5.96997
-6.01755
-4.91534
-4.95293
-5.06295
-5.17134
-5.25448
-5.33428
-5.41396
-5.48676
-5.55221
-5.61291
-5.67016
-5.72424
-5.77566
-5.82499
-5.87285
-5.91966
-5.96601
-6.01195
-4.96498
-4.9981
-5.08907
-5.18712
-5.26732
-5.34287
-5.41825
-5.48865
-5.5528
-5.6125
-5.66893
-5.72243
-5.77338
-5.82227
-5.86959
-5.91568
-5.9609
-6.00513
-5.01193
-5.04119
-5.11676
-5.20404
-5.28036
-5.35205
-5.42335
-5.49108
-5.55366
-5.61219
-5.66765
-5.7204
-5.77071
-5.81898
-5.86559
-5.91078
-5.95475
-5.9973
-5.05614
-5.08164
-5.14489
-5.22212
-5.29389
-5.36183
-5.4292
-5.49407
-5.55486
-5.61205
-5.6664
-5.71822
-5.76774
-5.81522
-5.86096
-5.9051
-5.94778
-5.98872
-5.09406
-5.11642
-5.17065
-5.23952
-5.30671
-5.37119
-5.43512
-5.4973
-5.55627
-5.61209
-5.66529
-5.71614
-5.76478
-5.81142
-5.85624
-5.89934
-5.94081
-5.98037
-5.12906
-5.14879
-5.19564
-5.25706
-5.3196
-5.38065
-5.44133
-5.50084
-5.55789
-5.61226
-5.66424
-5.71402
-5.7617
-5.8074
-5.85124
-5.89328
-5.93356
-5.97182
-5.16571
-5.18291
-5.22294
-5.27697
-5.33432
-5.39151
-5.44867
-5.50518
-5.55997
-5.61259
-5.66307
-5.71153
-5.75801
-5.80255
-5.84521
-5.88601
-5.92497
-5.96187
-5.20274
-5.21753
-5.25153
-5.29862
-5.3505
-5.40349
-5.45693
-5.51023
-5.56244
-5.61298
-5.6617
-5.70859
-5.75362
-5.79678
-5.83807
-5.87747
-5.91501
-5.95051
-5.23818
-5.25081
-5.27974
-5.32068
-5.36722
-5.4159
-5.46559
-5.51558
-5.56501
-5.61324
-5.65997
-5.70506
-5.74843
-5.79002
-5.82978
-5.86769
-5.90375
-5.93785
-5.26913
-5.28
-5.30494
-5.34086
-5.38269
-5.42735
-5.47351
-5.52034
-5.56701
-5.61285
-5.65748
-5.70066
-5.74226
-5.78218
-5.82034
-5.85672
-5.89131
-5.92405
-5.29122
-5.30086
-5.3231
-5.35552
-5.3939
-5.43545
-5.47879
-5.523
-5.56729
-5.611
-5.65367
-5.69504
-5.73493
-5.77323
-5.80987
-5.8448
-5.87801
-5.90949
-5.29757
-5.30671
-5.32789
-5.35898
-5.396
-5.43617
-5.47809
-5.52087
-5.56375
-5.60606
-5.64736
-5.68737
-5.72594
-5.76294
-5.79832
-5.83206
-5.86415
-5.89461
-5.28109
-5.29084
-5.3134
-5.34642
-5.38533
-5.42691
-5.46973
-5.51308
-5.55626
-5.59862
-5.63974
-5.67941
-5.71751
-5.75397
-5.78876
-5.82187
-5.85333
-5.88319
-5.254
-5.26478
-5.29001
-5.32696
-5.36964
-5.41403
-5.45897
-5.50404
-5.54849
-5.59164
-5.6332
-5.67307
-5.71121
-5.74758
-5.78218
-5.81505
-5.84624
-5.87582
-5.21862
-5.23042
-5.25973
-5.30324
-5.35142
-5.39928
-5.44695
-5.49452
-5.54089
-5.58529
-5.62761
-5.66796
-5.70636
-5.74282
-5.77739
-5.81016
-5.8412
-5.87061
-5.17796
-5.18984
-5.22424
-5.27744
-5.33289
-5.38472
-5.43547
-5.48575
-5.5341
-5.57979
-5.62302
-5.66401
-5.70281
-5.73947
-5.77412
-5.80688
-5.83787
-5.86721
-5.13419
-5.14513
-5.18686
-5.2512
-5.31328
-5.36984
-5.42532
-5.47902
-5.52912
-5.57576
-5.6197
-5.66119
-5.70027
-5.73704
-5.77171
-5.80443
-5.83535
-5.8646
-5.08725
-5.09268
-5.15528
-5.23341
-5.29526
-5.35339
-5.41439
-5.47259
-5.52495
-5.57284
-5.61767
-5.65976
-5.69912
-5.73599
-5.77063
-5.8033
-5.83414
-5.86336
-5.04395
-5.00749
-5.11697
-5.22787
-5.29002
-5.34519
-5.40726
-5.46685
-5.51991
-5.56846
-5.61401
-5.65664
-5.69634
-5.7334
-5.76816
-5.80088
-5.83177
-5.861
-5.05803
-4.89901
-5.0279
-5.18191
-5.27193
-5.34318
-5.41198
-5.47274
-5.52538
-5.5735
-5.61862
-5.66071
-5.69983
-5.73633
-5.77055
-5.80278
-5.83326
-5.86222
-5.18074
-5.00072
-5.01489
-5.08697
-5.17525
-5.27436
-5.36492
-5.43855
-5.5001
-5.55507
-5.60522
-5.65083
-5.69247
-5.7308
-5.76634
-5.79953
-5.83083
-5.86088
-4.88805
-5.4796
-5.56842
-5.44411
-5.38968
-5.41673
-5.46357
-5.50667
-5.54807
-5.59009
-5.63142
-5.67059
-5.70739
-5.74196
-5.77437
-5.80478
-5.8334
-5.86202
-1.89979
-3.66254
-4.66719
-4.96627
-5.11535
-5.25886
-5.37276
-5.45357
-5.51765
-5.57435
-5.62545
-5.67133
-5.71284
-5.75091
-5.78605
-5.81806
-5.84679
-5.87047
-6.7278
-6.72782
-6.72818
-6.72891
-6.72987
-6.73098
-6.73225
-6.73371
-6.73539
-6.73735
-6.73963
-6.74227
-6.74531
-6.74879
-6.75277
-6.75728
-6.76235
-6.76804
-6.77439
-6.78145
-6.78927
-6.79791
-6.80744
-6.81793
-6.82946
-6.84213
-6.85607
-6.87135
-6.88797
-6.90565
-6.92394
-6.94274
-6.96304
-6.98543
-7.00911
-7.03392
-7.06014
-7.08783
-7.11666
-7.14498
-7.17252
-7.19712
-7.21644
-7.23784
-7.26382
-7.29119
-7.31972
-7.34892
-7.37858
-7.40853
-7.43863
-7.46876
-7.49882
-7.5287
-7.5583
-7.58753
-7.61626
-7.64441
-7.67186
-7.6985
-7.72419
-7.74883
-7.77227
-7.79438
-7.81501
-7.83402
-7.85124
-7.86653
-7.8797
-7.89059
-7.89902
-7.90481
-7.90777
-7.90771
-7.90445
-7.89779
-7.88753
-7.87348
-7.85543
-7.8332
-7.80658
-7.77538
-7.73941
-7.69848
-7.65241
-7.60103
-7.54414
-7.48159
-7.41321
-7.33885
-7.25838
-7.17168
-7.0786
-6.97901
-6.87288
-6.76027
-6.64131
-6.51577
-6.38308
-6.2431
-6.09609
-5.9421
-5.78117
-5.61333
-5.4386
-5.25703
-5.06868
-4.87364
-4.67197
-4.4638
-4.24925
-4.02844
-3.80154
-3.5687
-3.3301
-3.08593
-2.8364
-2.58171
-2.32211
-2.05784
-1.78915
-1.51631
-1.23958
-0.959241
-0.675574
-0.388882
-0.0994687
0.192351
0.486276
0.782003
1.07922
1.37757
1.67672
1.97635
2.27617
2.57585
2.87506
3.1735
3.47084
3.76678
4.06103
4.35331
4.64333
4.93083
5.21555
5.49724
5.77567
6.0506
6.32182
6.58913
6.85235
7.11129
7.3658
7.61571
7.8609
8.10124
8.33662
8.56694
8.79212
9.01209
9.22679
9.43618
9.64034
9.83928
10.0328
10.2206
10.4027
10.5792
10.7502
10.9155
11.0753
11.2296
11.3784
11.5218
11.6601
11.7937
11.9239
12.0521
12.1899
12.3341
-6.72675
-6.72701
-6.7275
-6.72816
-6.72881
-6.72937
-6.72996
-6.73072
-6.73176
-6.73314
-6.73488
-6.73703
-6.7396
-6.74262
-6.74611
-6.75012
-6.75468
-6.75983
-6.76562
-6.7721
-6.77934
-6.7874
-6.79633
-6.8062
-6.81705
-6.8289
-6.84174
-6.85548
-6.87
-6.88528
-6.90159
-6.91979
-6.93943
-6.95915
-6.97925
-6.99967
-7.02027
-7.04154
-7.06282
-7.08544
-7.10976
-7.13728
-7.17237
-7.20807
-7.23903
-7.26908
-7.29886
-7.32866
-7.35855
-7.38853
-7.41855
-7.44855
-7.47843
-7.50813
-7.53754
-7.56659
-7.59517
-7.62318
-7.65051
-7.67706
-7.7027
-7.72731
-7.75076
-7.77291
-7.79363
-7.81276
-7.83015
-7.84564
-7.85907
-7.87025
-7.87903
-7.88521
-7.8886
-7.88904
-7.88631
-7.88024
-7.87061
-7.85724
-7.83994
-7.81849
-7.79271
-7.76241
-7.72739
-7.68747
-7.64245
-7.59218
-7.53646
-7.47514
-7.40804
-7.33504
-7.25599
-7.17077
-7.07925
-6.98129
-6.87679
-6.76561
-6.64755
-6.52247
-6.39059
-6.25203
-6.1066
-5.95426
-5.79502
-5.62888
-5.45587
-5.27602
-5.08939
-4.89606
-4.69611
-4.48964
-4.27678
-4.05766
-3.83241
-3.60121
-3.36422
-3.12163
-2.87365
-2.62048
-2.36235
-2.09951
-1.83221
-1.56071
-1.28527
-1.00616
-0.723672
-0.438097
-0.149742
0.141082
0.434072
0.728935
1.02536
1.32299
1.62149
1.92054
2.21986
2.5191
2.81797
3.11612
3.41326
3.70908
4.00328
4.29558
4.58571
4.87338
5.15834
5.44034
5.71915
5.99453
6.26626
6.53416
6.79801
7.05764
7.3129
7.56362
7.80966
8.0509
8.28723
8.51855
8.74476
8.96582
9.1817
9.39234
9.59751
9.79692
9.99061
10.1787
10.3612
10.5381
10.7095
10.8753
11.0356
11.1904
11.3399
11.484
11.6232
11.7579
11.8898
12.0198
12.1605
12.2993
-6.72311
-6.724
-6.72527
-6.72636
-6.72705
-6.72746
-6.72783
-6.72833
-6.7291
-6.73022
-6.73173
-6.73366
-6.73605
-6.73891
-6.74228
-6.74618
-6.75065
-6.75574
-6.7615
-6.76797
-6.77521
-6.78328
-6.79222
-6.80209
-6.81293
-6.82475
-6.83755
-6.85131
-6.86595
-6.88145
-6.89796
-6.91571
-6.93465
-6.95444
-6.97512
-6.99651
-7.01833
-7.04066
-7.06345
-7.08672
-7.11055
-7.13584
-7.16415
-7.19397
-7.22345
-7.25288
-7.28229
-7.31173
-7.34122
-7.37075
-7.40028
-7.42976
-7.45914
-7.48833
-7.51725
-7.54583
-7.57397
-7.60157
-7.62852
-7.65473
-7.68006
-7.70441
-7.72765
-7.74963
-7.77022
-7.78928
-7.80664
-7.82216
-7.83566
-7.84698
-7.85594
-7.86237
-7.86607
-7.86687
-7.86457
-7.85899
-7.84992
-7.83717
-7.82055
-7.79986
-7.7749
-7.74548
-7.71141
-7.67251
-7.62858
-7.57946
-7.52496
-7.46491
-7.39915
-7.32755
-7.24995
-7.16623
-7.07625
-6.97991
-6.8771
-6.76771
-6.65153
-6.52844
-6.39851
-6.26182
-6.11831
-5.96794
-5.8107
-5.64658
-5.47561
-5.29783
-5.11328
-4.92204
-4.72418
-4.51981
-4.30904
-4.092
-3.86883
-3.63969
-3.40475
-3.16418
-2.91819
-2.66699
-2.4108
-2.14985
-1.88441
-1.61472
-1.34104
-1.06364
-0.782803
-0.498824
-0.212007
0.0773422
0.36892
0.662439
0.957584
1.25401
1.55138
1.84939
2.14774
2.44609
2.74414
3.04156
3.33805
3.63329
3.92701
4.2189
4.50869
4.7961
5.08089
5.36279
5.64156
5.91698
6.18882
6.45689
6.72098
6.98092
7.23653
7.48766
7.73417
7.97593
8.21281
8.4447
8.67152
8.89317
9.10957
9.32069
9.52649
9.7269
9.92188
10.1113
10.2952
10.4735
10.6462
10.8134
10.975
11.1312
11.282
11.4276
11.5684
11.705
11.8392
11.9711
12.1139
12.2408
-6.71711
-6.71876
-6.72124
-6.72327
-6.72454
-6.72537
-6.72603
-6.72672
-6.72757
-6.72872
-6.73022
-6.73213
-6.73449
-6.73733
-6.74069
-6.7446
-6.74909
-6.7542
-6.75999
-6.76649
-6.77375
-6.78183
-6.79076
-6.80057
-6.81131
-6.82299
-6.83561
-6.84914
-6.86357
-6.87888
-6.89514
-6.91242
-6.9307
-6.94989
-6.96995
-6.99083
-7.01242
-7.03477
-7.05798
-7.08206
-7.10695
-7.13277
-7.15974
-7.18759
-7.21589
-7.24448
-7.27325
-7.30215
-7.33114
-7.36021
-7.38929
-7.41834
-7.44729
-7.47609
-7.50464
-7.53287
-7.56069
-7.588
-7.61471
-7.6407
-7.66586
-7.69007
-7.7132
-7.73512
-7.75569
-7.77477
-7.7922
-7.80782
-7.82148
-7.83299
-7.84219
-7.8489
-7.85294
-7.85412
-7.85224
-7.84713
-7.83858
-7.8264
-7.81039
-7.79035
-7.7661
-7.73744
-7.70417
-7.66611
-7.62308
-7.57489
-7.52137
-7.46234
-7.39765
-7.32714
-7.25068
-7.16811
-7.07931
-6.98415
-6.88254
-6.77436
-6.65948
-6.53782
-6.40938
-6.27417
-6.13215
-5.9833
-5.82758
-5.66501
-5.49561
-5.3194
-5.13643
-4.94678
-4.75052
-4.54775
-4.33857
-4.12312
-3.90153
-3.67395
-3.44056
-3.20154
-2.95707
-2.70736
-2.45264
-2.19314
-1.92911
-1.66079
-1.38844
-1.11234
-0.832761
-0.549997
-0.264349
0.0238767
0.314386
0.60689
0.901061
1.19656
1.49307
1.79029
2.0879
2.38557
2.683
2.97986
3.27585
3.57065
3.86399
4.15556
4.44509
4.73231
5.01696
5.29877
5.57752
5.85296
6.12488
6.39308
6.65735
6.91751
7.17339
7.42483
7.67168
7.9138
8.15107
8.38341
8.61071
8.83289
9.04984
9.26154
9.46795
9.66909
9.8649
10.0552
10.24
10.4193
10.5929
10.761
10.9236
11.0807
11.2325
11.3791
11.5211
11.6588
11.794
11.9257
12.0669
12.1799
-6.71016
-6.71261
-6.71653
-6.71975
-6.72186
-6.72332
-6.7245
-6.7256
-6.7268
-6.72821
-6.72994
-6.73204
-6.73458
-6.7376
-6.74113
-6.74521
-6.74988
-6.75518
-6.76115
-6.76784
-6.77529
-6.78354
-6.79263
-6.80261
-6.81348
-6.82528
-6.83799
-6.85163
-6.86617
-6.88162
-6.89798
-6.91527
-6.93347
-6.95254
-6.97243
-6.99309
-7.0145
-7.03667
-7.05967
-7.08355
-7.10831
-7.13397
-7.16045
-7.1876
-7.21521
-7.24317
-7.27138
-7.29978
-7.32833
-7.35698
-7.38567
-7.41435
-7.44296
-7.47143
-7.49969
-7.52765
-7.55523
-7.58232
-7.60884
-7.63468
-7.65972
-7.68384
-7.70692
-7.72882
-7.7494
-7.76852
-7.78602
-7.80175
-7.81555
-7.82724
-7.83665
-7.8436
-7.84791
-7.8494
-7.84786
-7.84312
-7.83497
-7.82323
-7.80769
-7.78815
-7.76443
-7.73633
-7.70365
-7.66621
-7.62383
-7.57631
-7.5235
-7.4652
-7.40127
-7.33154
-7.25588
-7.17414
-7.08618
-6.99189
-6.89116
-6.78387
-6.66994
-6.54929
-6.42189
-6.28771
-6.14673
-5.99892
-5.84426
-5.68275
-5.51441
-5.33928
-5.15739
-4.96883
-4.77365
-4.57196
-4.36387
-4.1495
-3.92898
-3.70247
-3.47013
-3.23215
-2.9887
-2.74001
-2.48629
-2.22776
-1.96468
-1.69729
-1.42584
-1.15062
-0.87188
-0.589933
-0.305069
-0.0175956
0.272209
0.564039
0.857559
1.15243
1.44838
1.74509
2.04222
2.33946
2.6365
2.93301
3.22869
3.52324
3.81635
4.10775
4.39716
4.68429
4.96889
5.2507
5.52948
5.805
6.07704
6.34539
6.60985
6.87024
7.12637
7.3781
7.62527
7.86775
8.10543
8.33818
8.56592
8.78855
9.00599
9.21817
9.42503
9.62658
9.82278
10.0135
10.1988
10.3785
10.5526
10.7212
10.8843
11.042
11.1943
11.3415
11.484
11.622
11.7571
11.8873
12.025
12.1252
-6.70367
-6.70688
-6.71216
-6.71656
-6.71956
-6.72176
-6.72355
-6.72519
-6.72686
-6.72868
-6.73079
-6.73324
-6.73611
-6.73945
-6.74329
-6.74769
-6.75268
-6.75829
-6.76458
-6.77159
-6.77935
-6.78791
-6.79731
-6.80757
-6.81872
-6.83079
-6.84376
-6.85765
-6.87243
-6.8881
-6.90465
-6.92206
-6.94032
-6.95939
-6.97925
-6.99988
-7.02126
-7.04339
-7.06627
-7.08992
-7.11434
-7.13953
-7.16544
-7.19196
-7.21897
-7.24638
-7.27409
-7.30206
-7.33021
-7.3585
-7.38687
-7.41525
-7.44359
-7.47182
-7.49985
-7.52762
-7.55503
-7.58199
-7.60841
-7.63416
-7.65915
-7.68324
-7.70632
-7.72825
-7.74889
-7.76809
-7.78571
-7.80157
-7.81553
-7.8274
-7.83701
-7.84419
-7.84875
-7.85051
-7.84927
-7.84484
-7.83702
-7.82562
-7.81045
-7.7913
-7.76799
-7.74031
-7.70807
-7.67109
-7.62917
-7.58214
-7.52983
-7.47205
-7.40865
-7.33946
-7.26436
-7.18319
-7.09582
-7.00214
-6.90202
-6.79537
-6.68209
-6.56213
-6.43543
-6.30195
-6.16167
-6.01456
-5.86061
-5.69981
-5.53219
-5.35778
-5.17662
-4.98877
-4.79433
-4.59337
-4.38601
-4.17236
-3.95257
-3.72678
-3.49516
-3.25789
-3.01515
-2.76715
-2.51411
-2.25626
-1.99384
-1.72709
-1.45626
-1.18164
-0.903495
-0.622118
-0.337807
-0.0508583
0.238449
0.529795
0.822843
1.11728
1.41282
1.70917
2.00596
2.30289
2.59964
2.89589
3.19135
3.48571
3.77867
4.06994
4.35925
4.64631
4.93088
5.21269
5.4915
5.76709
6.03922
6.30768
6.57228
6.83284
7.08918
7.34114
7.58857
7.83134
8.06931
8.30239
8.53045
8.75342
8.9712
9.18372
9.39091
9.59274
9.7892
9.98023
10.1658
10.3458
10.5202
10.6892
10.8526
11.0106
11.1633
11.3107
11.4533
11.5911
11.7256
11.8538
11.988
12.0768
-6.69871
-6.70263
-6.70902
-6.71443
-6.71827
-6.72119
-6.72363
-6.72585
-6.72803
-6.73034
-6.73289
-6.73577
-6.73905
-6.74279
-6.74703
-6.75183
-6.75721
-6.76322
-6.76989
-6.77728
-6.78542
-6.79435
-6.8041
-6.81469
-6.82616
-6.83851
-6.85174
-6.86587
-6.88086
-6.89672
-6.91341
-6.93093
-6.94925
-6.96834
-6.98819
-7.00879
-7.03012
-7.05219
-7.07497
-7.09847
-7.12266
-7.14752
-7.17303
-7.1991
-7.22566
-7.25264
-7.27998
-7.30759
-7.33544
-7.36345
-7.39157
-7.41974
-7.44789
-7.47596
-7.50386
-7.53152
-7.55885
-7.58576
-7.61214
-7.63789
-7.6629
-7.68703
-7.71018
-7.73219
-7.75294
-7.77226
-7.79002
-7.80604
-7.82017
-7.83223
-7.84205
-7.84945
-7.85423
-7.85623
-7.85523
-7.85106
-7.84351
-7.83239
-7.8175
-7.79864
-7.77562
-7.74824
-7.71631
-7.67964
-7.63805
-7.59134
-7.53936
-7.48192
-7.41886
-7.35002
-7.27527
-7.19447
-7.10747
-7.01416
-6.91442
-6.80817
-6.69531
-6.57577
-6.44951
-6.31647
-6.17663
-6.02995
-5.87644
-5.71608
-5.54891
-5.37494
-5.19424
-5.00686
-4.81287
-4.61238
-4.40549
-4.19231
-3.97299
-3.74767
-3.51653
-3.27972
-3.03745
-2.78992
-2.53735
-2.27996
-2.01798
-1.75167
-1.48129
-1.20709
-0.929361
-0.648389
-0.364476
-0.0778993
0.21104
0.50202
0.794711
1.08882
1.38407
1.68013
1.97665
2.27334
2.56985
2.8659
3.16117
3.45537
3.74818
4.03933
4.32854
4.61554
4.90005
5.18184
5.46064
5.73624
6.0084
6.27693
6.54162
6.80229
7.05876
7.31088
7.55848
7.80144
8.03962
8.2729
8.5012
8.7244
8.94242
9.15518
9.3626
9.56466
9.76133
9.95257
10.1383
10.3186
10.4933
10.6625
10.8261
10.9843
11.1372
11.2847
11.4272
11.5646
11.698
11.8239
11.955
12.0339
-6.69602
-6.70048
-6.70766
-6.71386
-6.71842
-6.72198
-6.72502
-6.72779
-6.73049
-6.73329
-6.7363
-6.73963
-6.74334
-6.74751
-6.75217
-6.75738
-6.76317
-6.76959
-6.77667
-6.78445
-6.79297
-6.80226
-6.81235
-6.82326
-6.83502
-6.84763
-6.86109
-6.87542
-6.89058
-6.90657
-6.92338
-6.94097
-6.95934
-6.97846
-6.99832
-7.0189
-7.04019
-7.06219
-7.08488
-7.10824
-7.13225
-7.1569
-7.18213
-7.20791
-7.23418
-7.26088
-7.28794
-7.31532
-7.34296
-7.37079
-7.39876
-7.42681
-7.45486
-7.48286
-7.51072
-7.53836
-7.56569
-7.59262
-7.61905
-7.64487
-7.66996
-7.69419
-7.71745
-7.7396
-7.76049
-7.77997
-7.79789
-7.81409
-7.82841
-7.84066
-7.85067
-7.85826
-7.86325
-7.86544
-7.86465
-7.86068
-7.85333
-7.8424
-7.82771
-7.80905
-7.78622
-7.75903
-7.72729
-7.69081
-7.6494
-7.60288
-7.55108
-7.49381
-7.43093
-7.36228
-7.28771
-7.20708
-7.12027
-7.02715
-6.92761
-6.82155
-6.7089
-6.58958
-6.46353
-6.33072
-6.1911
-6.04465
-5.89136
-5.73123
-5.56429
-5.39057
-5.21011
-5.02298
-4.82925
-4.62902
-4.42239
-4.20949
-3.99045
-3.76542
-3.53456
-3.29804
-3.05607
-2.80884
-2.55657
-2.29948
-2.0378
-1.77179
-1.50169
-1.22779
-0.950352
-0.669668
-0.386033
-0.099727
0.188936
0.479634
0.772058
1.06592
1.36094
1.65677
1.95309
2.24956
2.54589
2.84176
3.13686
3.43091
3.72359
4.01462
4.30372
4.59063
4.87507
5.15679
5.43556
5.71114
5.9833
6.25185
6.51658
6.77731
7.03385
7.28605
7.53376
7.77683
8.01514
8.24857
8.47701
8.70037
8.91856
9.13149
9.33909
9.54132
9.73816
9.92956
10.1155
10.2959
10.4708
10.6401
10.804
10.9623
11.1151
11.2626
11.4048
11.5416
11.6738
11.7973
11.9256
11.9958
-6.69592
-6.70071
-6.70839
-6.71512
-6.72021
-6.72431
-6.72786
-6.73112
-6.73429
-6.73753
-6.74097
-6.74471
-6.74883
-6.75339
-6.75844
-6.76404
-6.77021
-6.777
-6.78445
-6.79259
-6.80145
-6.81106
-6.82145
-6.83263
-6.84463
-6.85745
-6.87109
-6.88556
-6.90085
-6.91693
-6.9338
-6.95145
-6.96985
-6.98899
-7.00885
-7.02942
-7.05069
-7.07264
-7.09526
-7.11853
-7.14243
-7.16694
-7.19201
-7.21762
-7.24371
-7.27024
-7.29716
-7.3244
-7.35193
-7.37968
-7.40759
-7.43561
-7.46366
-7.49167
-7.51956
-7.54726
-7.57467
-7.6017
-7.62824
-7.65418
-7.6794
-7.70379
-7.72721
-7.74952
-7.77058
-7.79024
-7.80834
-7.82472
-7.8392
-7.85163
-7.86181
-7.86957
-7.87472
-7.87707
-7.87642
-7.87258
-7.86536
-7.85456
-7.83998
-7.82142
-7.79868
-7.77158
-7.73991
-7.70349
-7.66214
-7.61567
-7.56391
-7.50669
-7.44384
-7.37521
-7.30067
-7.22007
-7.13329
-7.04019
-6.94068
-6.83466
-6.72205
-6.60277
-6.47677
-6.34401
-6.20444
-6.05805
-5.90482
-5.74476
-5.57789
-5.40425
-5.22387
-5.03684
-4.84321
-4.6431
-4.43659
-4.22382
-4.00492
-3.78003
-3.54932
-3.31298
-3.07118
-2.82413
-2.57204
-2.31514
-2.05365
-1.78784
-1.51795
-1.24425
-0.967013
-0.686538
-0.403102
-0.117005
0.171439
0.461918
0.754131
1.04779
1.34262
1.63827
1.9344
2.23069
2.52685
2.82255
3.11749
3.41138
3.70392
3.99482
4.28381
4.57061
4.85496
5.13661
5.41531
5.69084
5.96297
6.2315
6.49622
6.75695
7.01352
7.26575
7.51351
7.75664
7.99503
8.22854
8.45708
8.68054
8.89883
9.11188
9.3196
9.52195
9.71891
9.91043
10.0965
10.277
10.452
10.6215
10.7853
10.9437
11.0965
11.2438
11.3856
11.5216
11.6524
11.7736
11.8994
11.9621
-6.69842
-6.70337
-6.71123
-6.71824
-6.7237
-6.72818
-6.73213
-6.73578
-6.73933
-6.74294
-6.74674
-6.75083
-6.75529
-6.76019
-6.76557
-6.77149
-6.77798
-6.78508
-6.79282
-6.80124
-6.81037
-6.82023
-6.83084
-6.84222
-6.85439
-6.86735
-6.88111
-6.89567
-6.91102
-6.92715
-6.94406
-6.96173
-6.98014
-6.99928
-7.01914
-7.03971
-7.06096
-7.0829
-7.10549
-7.12872
-7.15257
-7.17701
-7.20202
-7.22756
-7.25359
-7.28006
-7.30693
-7.33415
-7.36166
-7.38942
-7.41736
-7.44543
-7.47355
-7.50165
-7.52966
-7.55748
-7.58503
-7.6122
-7.6389
-7.66501
-7.69041
-7.71498
-7.73857
-7.76106
-7.7823
-7.80213
-7.8204
-7.83694
-7.85157
-7.86414
-7.87445
-7.88232
-7.88757
-7.89001
-7.88944
-7.88566
-7.87849
-7.86771
-7.85314
-7.83458
-7.81183
-7.7847
-7.75299
-7.71652
-7.6751
-7.62856
-7.57671
-7.5194
-7.45645
-7.38773
-7.31308
-7.23238
-7.14548
-7.05228
-6.95266
-6.84654
-6.73383
-6.61447
-6.48838
-6.35553
-6.21589
-6.06942
-5.91613
-5.75601
-5.5891
-5.41542
-5.23502
-5.04797
-4.85434
-4.65423
-4.44775
-4.23501
-4.01616
-3.79133
-3.56069
-3.32443
-3.08272
-2.83578
-2.58381
-2.32703
-2.06568
-1.8
-1.53025
-1.25671
-0.979636
-0.699323
-0.416053
-0.130137
0.158117
0.448408
0.740435
1.03392
1.32856
1.62402
1.91996
2.21607
2.51205
2.80757
3.10235
3.39608
3.68846
3.97922
4.26807
4.55474
4.83897
5.12051
5.39911
5.67455
5.94661
6.21507
6.47975
6.74044
6.99699
7.24921
7.49697
7.74012
7.97852
8.21207
8.44065
8.66417
8.88252
9.09563
9.30343
9.50587
9.70291
9.89451
10.0806
10.2612
10.4363
10.6058
10.7697
10.928
11.0807
11.2277
11.3689
11.504
11.6335
11.7524
11.8759
11.9322
-6.70334
-6.70827
-6.71606
-6.72312
-6.72875
-6.73347
-6.73768
-6.74161
-6.74544
-6.74932
-6.75339
-6.75774
-6.76246
-6.7676
-6.77321
-6.77936
-6.78606
-6.79337
-6.80131
-6.80992
-6.81921
-6.82921
-6.83995
-6.85144
-6.8637
-6.87674
-6.89055
-6.90515
-6.92052
-6.93667
-6.95359
-6.97126
-6.98967
-7.00882
-7.02869
-7.04926
-7.07053
-7.09247
-7.11507
-7.13831
-7.16218
-7.18663
-7.21166
-7.23722
-7.26327
-7.28978
-7.31669
-7.34396
-7.37155
-7.3994
-7.42745
-7.45564
-7.4839
-7.51215
-7.54032
-7.56831
-7.59604
-7.62339
-7.65028
-7.67657
-7.70216
-7.7269
-7.75067
-7.77332
-7.79471
-7.81469
-7.83308
-7.84973
-7.86446
-7.8771
-7.88747
-7.89539
-7.90066
-7.9031
-7.90251
-7.89869
-7.89146
-7.88061
-7.86595
-7.84727
-7.8244
-7.79712
-7.76525
-7.72861
-7.68702
-7.64028
-7.58824
-7.53071
-7.46756
-7.39862
-7.32375
-7.24282
-7.15571
-7.06229
-6.96247
-6.85614
-6.74323
-6.62367
-6.49739
-6.36436
-6.22455
-6.07792
-5.92448
-5.76422
-5.59718
-5.42339
-5.24289
-5.05576
-4.86207
-4.6619
-4.45539
-4.24263
-4.02377
-3.79895
-3.56834
-3.33212
-3.09047
-2.8436
-2.59171
-2.33503
-2.07379
-1.80823
-1.53861
-1.26521
-0.988288
-0.708133
-0.425039
-0.13931
0.14875
0.438848
0.730675
1.02396
1.31841
1.61367
1.9094
2.20531
2.50108
2.79641
3.09099
3.38452
3.67672
3.9673
4.25597
4.54248
4.82655
5.10794
5.3864
5.66171
5.93365
6.20201
6.46659
6.7272
6.98368
7.23585
7.48356
7.72668
7.96506
8.1986
8.42718
8.6507
8.86907
9.08221
9.29005
9.49254
9.68962
9.88127
10.0674
10.2481
10.4232
10.5927
10.7565
10.9147
11.0672
11.2138
11.3545
11.4887
11.6167
11.7335
11.8549
11.9058
-6.71035
-6.71511
-6.72261
-6.72952
-6.73515
-6.73995
-6.74429
-6.74836
-6.75235
-6.7564
-6.76062
-6.76512
-6.76997
-6.77524
-6.78098
-6.78723
-6.79403
-6.80142
-6.80944
-6.81811
-6.82746
-6.83752
-6.8483
-6.85983
-6.87211
-6.88516
-6.89898
-6.91357
-6.92894
-6.94508
-6.96199
-6.97966
-6.99807
-7.01723
-7.03712
-7.05772
-7.07902
-7.10101
-7.12366
-7.14697
-7.1709
-7.19543
-7.22052
-7.24616
-7.27229
-7.2989
-7.32593
-7.35334
-7.38108
-7.40908
-7.43729
-7.46565
-7.49408
-7.52251
-7.55086
-7.57904
-7.60695
-7.63449
-7.66154
-7.688
-7.71374
-7.73863
-7.76252
-7.78528
-7.80677
-7.82681
-7.84525
-7.86193
-7.87666
-7.88929
-7.89962
-7.90747
-7.91265
-7.91498
-7.91426
-7.91029
-7.90289
-7.89184
-7.87697
-7.85807
-7.83495
-7.80742
-7.77528
-7.73836
-7.69647
-7.64943
-7.59709
-7.53926
-7.47579
-7.40653
-7.33136
-7.25012
-7.16271
-7.06899
-6.96887
-6.86226
-6.74908
-6.62926
-6.50273
-6.36947
-6.22942
-6.08258
-5.92894
-5.7685
-5.60129
-5.42735
-5.24673
-5.05948
-4.86569
-4.66546
-4.45888
-4.24609
-4.02721
-3.8024
-3.57182
-3.33564
-3.09406
-2.84727
-2.59547
-2.3389
-2.07778
-1.81237
-1.54291
-1.26967
-0.992928
-0.712964
-0.430077
-0.144563
0.143283
0.433154
0.724748
1.01781
1.31203
1.60703
1.90251
2.19817
2.49369
2.78877
3.08311
3.3764
3.66837
3.95871
4.24716
4.53345
4.81731
5.0985
5.37677
5.65191
5.92368
6.19188
6.45632
6.7168
6.97316
7.22523
7.47285
7.71589
7.95422
8.1877
8.41624
8.63973
8.85809
9.07122
9.27906
9.48156
9.67867
9.87033
10.0565
10.2372
10.4123
10.5817
10.7455
10.9036
11.0558
11.202
11.342
11.4752
11.6018
11.7166
11.836
11.8825
-6.71904
-6.72353
-6.73058
-6.73717
-6.74264
-6.74738
-6.7517
-6.75578
-6.75979
-6.76386
-6.7681
-6.77262
-6.77747
-6.78273
-6.78845
-6.79467
-6.80145
-6.80882
-6.81681
-6.82546
-6.83478
-6.8448
-6.85555
-6.86703
-6.87928
-6.89228
-6.90606
-6.92062
-6.93596
-6.95207
-6.96896
-6.98662
-7.00504
-7.02422
-7.04414
-7.06478
-7.08615
-7.10821
-7.13094
-7.15433
-7.17835
-7.20298
-7.22819
-7.25395
-7.28023
-7.30699
-7.33419
-7.36177
-7.38968
-7.41787
-7.44626
-7.47479
-7.50339
-7.53199
-7.56049
-7.58882
-7.61687
-7.64454
-7.67171
-7.69826
-7.72407
-7.74901
-7.77293
-7.7957
-7.81716
-7.83716
-7.85553
-7.87211
-7.88672
-7.8992
-7.90936
-7.91701
-7.92198
-7.92407
-7.92308
-7.91883
-7.91113
-7.89977
-7.88457
-7.86532
-7.84184
-7.81394
-7.78143
-7.74413
-7.70186
-7.65443
-7.6017
-7.54348
-7.47962
-7.40999
-7.33444
-7.25285
-7.16507
-7.07101
-6.97056
-6.86363
-6.75014
-6.63002
-6.50322
-6.36969
-6.2294
-6.08234
-5.92849
-5.76788
-5.60051
-5.42643
-5.24568
-5.05834
-4.86448
-4.6642
-4.45759
-4.2448
-4.02593
-3.80116
-3.57064
-3.33455
-3.09307
-2.8464
-2.59474
-2.33832
-2.07738
-1.81216
-1.5429
-1.26988
-0.993375
-0.713669
-0.431047
-0.1458
0.141773
0.43135
0.722656
1.01544
1.30935
1.60403
1.89919
2.19453
2.48974
2.7845
3.07853
3.37153
3.66319
3.95324
4.24141
4.52741
4.81101
5.09193
5.36996
5.64485
5.9164
6.18439
6.44864
6.70894
6.96513
7.21705
7.46454
7.70745
7.94567
8.17906
8.40752
8.63095
8.84925
9.06234
9.27016
9.47265
9.66974
9.8614
10.0476
10.2282
10.4033
10.5727
10.7364
10.8942
11.0462
11.1919
11.3312
11.4634
11.5887
11.7016
11.819
11.8619
-6.72903
-6.73317
-6.73966
-6.7458
-6.75097
-6.75549
-6.75963
-6.76356
-6.76743
-6.77136
-6.77546
-6.77983
-6.78454
-6.78966
-6.79524
-6.80133
-6.80797
-6.81521
-6.82307
-6.83159
-6.8408
-6.85071
-6.86135
-6.87274
-6.88489
-6.89782
-6.91152
-6.92602
-6.94131
-6.95739
-6.97427
-6.99192
-7.01035
-7.02955
-7.0495
-7.07018
-7.0916
-7.11372
-7.13653
-7.16002
-7.18414
-7.2089
-7.23425
-7.26017
-7.28661
-7.31353
-7.34089
-7.36864
-7.3967
-7.42502
-7.45354
-7.48218
-7.51088
-7.53956
-7.56813
-7.59651
-7.62459
-7.65227
-7.67942
-7.70593
-7.73167
-7.75651
-7.78031
-7.80292
-7.8242
-7.84399
-7.86213
-7.87845
-7.89278
-7.90495
-7.91478
-7.92209
-7.92669
-7.9284
-7.92701
-7.92236
-7.91423
-7.90244
-7.8868
-7.86711
-7.84319
-7.81484
-7.78188
-7.74413
-7.70141
-7.65354
-7.60037
-7.54172
-7.47745
-7.40741
-7.33147
-7.2495
-7.16136
-7.06695
-6.96616
-6.85892
-6.74513
-6.62473
-6.49768
-6.36391
-6.22341
-6.07615
-5.92214
-5.76138
-5.5939
-5.41972
-5.23891
-5.05152
-4.85764
-4.65737
-4.4508
-4.23806
-4.01928
-3.79462
-3.56423
-3.32829
-3.08699
-2.84052
-2.58908
-2.33291
-2.07222
-1.80727
-1.53831
-1.2656
-0.989427
-0.710065
-0.427785
-0.142884
0.144316
0.433508
0.724453
1.01687
1.31037
1.60464
1.89939
2.19433
2.48914
2.78352
3.07715
3.36976
3.66105
3.95073
4.23853
4.52418
4.80743
5.08803
5.36574
5.64033
5.91159
6.17931
6.4433
6.70336
6.95934
7.21105
7.45835
7.7011
7.93917
8.17243
8.40077
8.6241
8.84232
9.05535
9.26312
9.46556
9.66263
9.85427
10.0404
10.221
10.396
10.5654
10.7289
10.8866
11.0382
11.1835
11.3221
11.4533
11.5772
11.6884
11.8039
11.844
-6.73995
-6.74372
-6.74958
-6.75517
-6.75989
-6.76403
-6.76782
-6.77141
-6.77495
-6.77857
-6.78237
-6.78644
-6.79086
-6.7957
-6.80102
-6.80686
-6.81327
-6.82028
-6.82793
-6.83625
-6.84526
-6.855
-6.86549
-6.87673
-6.88876
-6.90157
-6.91517
-6.92957
-6.94478
-6.9608
-6.97761
-6.99523
-7.01363
-7.03282
-7.05278
-7.07348
-7.09493
-7.1171
-7.13998
-7.16356
-7.1878
-7.21268
-7.23814
-7.26416
-7.29069
-7.31769
-7.34512
-7.3729
-7.40099
-7.42931
-7.4578
-7.4864
-7.51504
-7.54363
-7.57211
-7.60036
-7.62829
-7.65578
-7.68272
-7.70899
-7.73446
-7.759
-7.78248
-7.80475
-7.82566
-7.84505
-7.86278
-7.87867
-7.89255
-7.90426
-7.91362
-7.92044
-7.92455
-7.92576
-7.92387
-7.9187
-7.91007
-7.89777
-7.88162
-7.86142
-7.83699
-7.80815
-7.7747
-7.73647
-7.69328
-7.64496
-7.59135
-7.53227
-7.46759
-7.39717
-7.32086
-7.23853
-7.15006
-7.05533
-6.95425
-6.84674
-6.73271
-6.6121
-6.48484
-6.35091
-6.21027
-6.0629
-5.9088
-5.74798
-5.58047
-5.40629
-5.2255
-5.03817
-4.84437
-4.64421
-4.43777
-4.2252
-4.00662
-3.78217
-3.55203
-3.31636
-3.07535
-2.82919
-2.57809
-2.32227
-2.06196
-1.7974
-1.52885
-1.25658
-0.980856
-0.701932
-0.420102
-0.135673
0.15103
0.439734
0.730223
1.02215
1.31512
1.60887
1.90312
2.19755
2.49186
2.78574
3.07889
3.37101
3.66183
3.95105
4.2384
4.52361
4.80643
5.08662
5.36393
5.63815
5.90905
6.17643
6.4401
6.69987
6.95556
7.20702
7.45409
7.69662
7.9345
8.16758
8.39577
8.61897
8.83708
9.05002
9.25772
9.46011
9.65713
9.84873
10.0348
10.2154
10.3904
10.5596
10.723
10.8805
11.0317
11.1765
11.3144
11.4446
11.5673
11.6769
11.7905
11.8285
-6.752
-6.75539
-6.76062
-6.76557
-6.7697
-6.77325
-6.77646
-6.77949
-6.78248
-6.78556
-6.78885
-6.79245
-6.79642
-6.80083
-6.80575
-6.81122
-6.81727
-6.82396
-6.8313
-6.83934
-6.84808
-6.85757
-6.86781
-6.87883
-6.89063
-6.90324
-6.91666
-6.9309
-6.94595
-6.96182
-6.97849
-6.99597
-7.01426
-7.03336
-7.05325
-7.07391
-7.09533
-7.11748
-7.14034
-7.1639
-7.1881
-7.21292
-7.23832
-7.26425
-7.29067
-7.31753
-7.34479
-7.37238
-7.40025
-7.42834
-7.45657
-7.4849
-7.51325
-7.54154
-7.56968
-7.59757
-7.62509
-7.65216
-7.67864
-7.70443
-7.7294
-7.75343
-7.77636
-7.79808
-7.81842
-7.83724
-7.85438
-7.86968
-7.88297
-7.89408
-7.90284
-7.90907
-7.91259
-7.91321
-7.91074
-7.90501
-7.89581
-7.88296
-7.86627
-7.84555
-7.82062
-7.79128
-7.75736
-7.71867
-7.67505
-7.62632
-7.57231
-7.51289
-7.44787
-7.37713
-7.30051
-7.21791
-7.12918
-7.03423
-6.93296
-6.82528
-6.71111
-6.59039
-6.46306
-6.32907
-6.18841
-6.04106
-5.88701
-5.72626
-5.55885
-5.38481
-5.20419
-5.01706
-4.82349
-4.62358
-4.41743
-4.20518
-3.98694
-3.76287
-3.53313
-3.29789
-3.05732
-2.81163
-2.56102
-2.30572
-2.04594
-1.78194
-1.51398
-1.24229
-0.96715
-0.688819
-0.407604
-0.123813
0.162242