/*--------------------------------*- C++ -*----------------------------------*\
  =========                 |
  \\      /  F ield         | OpenFOAM: The Open Source CFD Toolbox
   \\    /   O peration     | Website:  https://openfoam.org
    \\  /    A nd           | Version:  sprint
     \\/     M anipulation  |
\*---------------------------------------------------------------------------*/
FoamFile
{
    version     2.0;
    format      ascii;
    class       volScalarField;
    location    "5";
    object      d.bubbles;
}
// * * * * * * * * * * * * * * * * * * * * * * * * * * * * * * * * * * * * * //

dimensions      [0 1 0 0 0 0 0];

internalField   nonuniform List<scalar>
50
(
0.00300040563
0.00300110488
0.00300180018
0.00300249358
0.00300318666
0.00300387818
0.00300457055
0.00300526257
0.00300595539
0.00300664879
0.00300734302
0.00300803811
0.00300873419
0.00300943126
0.00301012937
0.00301082851
0.00301152868
0.00301222987
0.00301293204
0.00301363515
0.00301433916
0.00301504402
0.00301574966
0.00301645602
0.00301716301
0.00301787056
0.00301857858
0.00301928697
0.00301999563
0.00302070448
0.00302141342
0.00302212238
0.00302283129
0.00302354009
0.00302424876
0.00302495726
0.0030256656
0.00302637377
0.00302708181
0.00302778974
0.0030284976
0.00302920541
0.00302991328
0.00303062095
0.00303132989
0.00303203401
0.00303275902
0.00303342196
0.00303447928
0.00303514582
)
;

boundaryField
{
    inlet
    {
        type            calculated;
        value           uniform 0.00300000033;
    }
    outlet
    {
        type            calculated;
        value           uniform 0.00303514582;
    }
    walls
    {
        type            calculated;
        value           nonuniform List<scalar>
200
(
0.00300040563
0.00300110488
0.00300180018
0.00300249358
0.00300318666
0.00300387818
0.00300457055
0.00300526257
0.00300595539
0.00300664879
0.00300734302
0.00300803811
0.00300873419
0.00300943126
0.00301012937
0.00301082851
0.00301152868
0.00301222987
0.00301293204
0.00301363515
0.00301433916
0.00301504402
0.00301574966
0.00301645602
0.00301716301
0.00301787056
0.00301857858
0.00301928697
0.00301999563
0.00302070448
0.00302141342
0.00302212238
0.00302283129
0.00302354009
0.00302424876
0.00302495726
0.0030256656
0.00302637377
0.00302708181
0.00302778974
0.0030284976
0.00302920541
0.00302991328
0.00303062095
0.00303132989
0.00303203401
0.00303275902
0.00303342196
0.00303447928
0.00303514582
0.00300040563
0.00300110488
0.00300180018
0.00300249358
0.00300318666
0.00300387818
0.00300457055
0.00300526257
0.00300595539
0.00300664879
0.00300734302
0.00300803811
0.00300873419
0.00300943126
0.00301012937
0.00301082851
0.00301152868
0.00301222987
0.00301293204
0.00301363515
0.00301433916
0.00301504402
0.00301574966
0.00301645602
0.00301716301
0.00301787056
0.00301857858
0.00301928697
0.00301999563
0.00302070448
0.00302141342
0.00302212238
0.00302283129
0.00302354009
0.00302424876
0.00302495726
0.0030256656
0.00302637377
0.00302708181
0.00302778974
0.0030284976
0.00302920541
0.00302991328
0.00303062095
0.00303132989
0.00303203401
0.00303275902
0.00303342196
0.00303447928
0.00303514582
0.00300040563
0.00300110488
0.00300180018
0.00300249358
0.00300318666
0.00300387818
0.00300457055
0.00300526257
0.00300595539
0.00300664879
0.00300734302
0.00300803811
0.00300873419
0.00300943126
0.00301012937
0.00301082851
0.00301152868
0.00301222987
0.00301293204
0.00301363515
0.00301433916
0.00301504402
0.00301574966
0.00301645602
0.00301716301
0.00301787056
0.00301857858
0.00301928697
0.00301999563
0.00302070448
0.00302141342
0.00302212238
0.00302283129
0.00302354009
0.00302424876
0.00302495726
0.0030256656
0.00302637377
0.00302708181
0.00302778974
0.0030284976
0.00302920541
0.00302991328
0.00303062095
0.00303132989
0.00303203401
0.00303275902
0.00303342196
0.00303447928
0.00303514582
0.00300040563
0.00300110488
0.00300180018
0.00300249358
0.00300318666
0.00300387818
0.00300457055
0.00300526257
0.00300595539
0.00300664879
0.00300734302
0.00300803811
0.00300873419
0.00300943126
0.00301012937
0.00301082851
0.00301152868
0.00301222987
0.00301293204
0.00301363515
0.00301433916
0.00301504402
0.00301574966
0.00301645602
0.00301716301
0.00301787056
0.00301857858
0.00301928697
0.00301999563
0.00302070448
0.00302141342
0.00302212238
0.00302283129
0.00302354009
0.00302424876
0.00302495726
0.0030256656
0.00302637377
0.00302708181
0.00302778974
0.0030284976
0.00302920541
0.00302991328
0.00303062095
0.00303132989
0.00303203401
0.00303275902
0.00303342196
0.00303447928
0.00303514582
)
;
    }
}


// ************************************************************************* //
