/*--------------------------------*- C++ -*----------------------------------*\
| =========                 |                                                 |
| \\      /  F ield         | OpenFOAM: The Open Source CFD Toolbox           |
|  \\    /   O peration     | Version:  2512                                  |
|   \\  /    A nd           | Website:  www.openfoam.com                      |
|    \\/     M anipulation  |                                                 |
\*---------------------------------------------------------------------------*/
FoamFile
{
    version     2.0;
    format      ascii;
    arch        "LSB;label=32;scalar=64";
    class       volScalarField;
    location    "0.1";
    object      p;
}
// * * * * * * * * * * * * * * * * * * * * * * * * * * * * * * * * * * * * * //

dimensions      [0 2 -2 0 0 0 0];

internalField   nonuniform List<scalar> 
32768
(
1.3423e-12
1.93215e-12
2.10808e-12
2.16397e-12
2.17716e-12
2.20666e-12
2.21779e-12
2.2243e-12
2.23822e-12
2.23909e-12
2.24692e-12
2.24566e-12
2.2499e-12
2.2584e-12
2.27067e-12
2.26113e-12
2.27302e-12
2.26315e-12
2.25091e-12
2.2622e-12
2.25479e-12
2.26074e-12
2.2537e-12
2.25162e-12
2.24782e-12
2.23937e-12
2.22515e-12
2.20179e-12
2.18753e-12
2.16178e-12
2.12053e-12
1.9451e-12
1.92849e-12
2.06111e-12
2.12904e-12
2.16342e-12
2.19104e-12
2.21107e-12
2.2244e-12
2.23302e-12
2.24575e-12
2.24612e-12
2.25203e-12
2.25008e-12
2.25372e-12
2.26237e-12
2.26933e-12
2.26502e-12
2.26938e-12
2.27439e-12
2.26674e-12
2.27013e-12
2.26876e-12
2.26301e-12
2.26174e-12
2.26004e-12
2.25486e-12
2.24336e-12
2.22911e-12
2.20616e-12
2.19685e-12
2.16657e-12
2.13722e-12
2.06111e-12
2.09921e-12
2.13279e-12
2.15733e-12
2.18918e-12
2.20043e-12
2.21905e-12
2.22665e-12
2.2391e-12
2.24831e-12
2.24799e-12
2.25783e-12
2.25404e-12
2.25705e-12
2.26246e-12
2.27063e-12
2.27013e-12
2.27616e-12
2.27435e-12
2.27259e-12
2.27645e-12
2.27405e-12
2.27232e-12
2.26548e-12
2.26179e-12
2.26146e-12
2.25459e-12
2.23982e-12
2.21639e-12
2.20955e-12
2.18383e-12
2.16282e-12
2.12355e-12
2.15431e-12
2.17641e-12
2.18559e-12
2.20421e-12
2.21668e-12
2.23291e-12
2.24092e-12
2.24398e-12
2.25123e-12
2.25732e-12
2.26465e-12
2.26439e-12
2.27172e-12
2.26922e-12
2.27189e-12
2.27437e-12
2.279e-12
2.28096e-12
2.28072e-12
2.28092e-12
2.27722e-12
2.27291e-12
2.27097e-12
2.26883e-12
2.26695e-12
2.25856e-12
2.24353e-12
2.22896e-12
2.22292e-12
2.20566e-12
2.19121e-12
2.17617e-12
2.19872e-12
2.21021e-12
2.2125e-12
2.22224e-12
2.22702e-12
2.23979e-12
2.24809e-12
2.25468e-12
2.25999e-12
2.2617e-12
2.2678e-12
2.27266e-12
2.2789e-12
2.27577e-12
2.27813e-12
2.28136e-12
2.28689e-12
2.28943e-12
2.28495e-12
2.28208e-12
2.27976e-12
2.27706e-12
2.2732e-12
2.27244e-12
2.27631e-12
2.269e-12
2.25341e-12
2.24134e-12
2.24148e-12
2.2265e-12
2.21317e-12
2.20378e-12
2.21622e-12
2.2328e-12
2.22796e-12
2.23765e-12
2.24534e-12
2.2584e-12
2.26412e-12
2.26221e-12
2.26687e-12
2.26598e-12
2.27084e-12
2.27796e-12
2.28596e-12
2.28194e-12
2.28534e-12
2.28816e-12
2.29432e-12
2.29242e-12
2.29117e-12
2.28743e-12
2.28573e-12
2.28563e-12
2.28018e-12
2.27723e-12
2.27995e-12
2.27143e-12
2.25862e-12
2.2504e-12
2.24343e-12
2.23382e-12
2.23311e-12
2.22382e-12
2.23405e-12
2.24859e-12
2.24538e-12
2.2494e-12
2.25354e-12
2.26071e-12
2.26587e-12
2.2659e-12
2.26677e-12
2.27178e-12
2.27859e-12
2.2832e-12
2.28463e-12
2.28522e-12
2.28863e-12
2.29087e-12
2.29394e-12
2.2951e-12
2.29316e-12
2.29435e-12
2.2938e-12
2.29467e-12
2.28925e-12
2.2845e-12
2.28611e-12
2.27913e-12
2.26923e-12
2.258e-12
2.25725e-12
2.2496e-12
2.24699e-12
2.23908e-12
2.24869e-12
2.26345e-12
2.25623e-12
2.26192e-12
2.26352e-12
2.26603e-12
2.27e-12
2.27614e-12
2.27702e-12
2.27769e-12
2.28046e-12
2.28545e-12
2.28768e-12
2.28818e-12
2.29066e-12
2.29171e-12
2.29628e-12
2.29656e-12
2.29747e-12
2.30062e-12
2.30372e-12
2.30222e-12
2.29271e-12
2.28897e-12
2.294e-12
2.28992e-12
2.27927e-12
2.26799e-12
2.26086e-12
2.25149e-12
2.26298e-12
2.24703e-12
2.27301e-12
2.2784e-12
2.27342e-12
2.27243e-12
2.2706e-12
2.27223e-12
2.27451e-12
2.28134e-12
2.2844e-12
2.28447e-12
2.28608e-12
2.28817e-12
2.29685e-12
2.29362e-12
2.29396e-12
2.29445e-12
2.30079e-12
2.3016e-12
2.30506e-12
2.30497e-12
2.30387e-12
2.30288e-12
2.30086e-12
2.30018e-12
2.308e-12
2.30262e-12
2.28745e-12
2.27435e-12
2.27551e-12
2.26566e-12
2.26787e-12
2.26236e-12
2.27457e-12
2.28881e-12
2.27826e-12
2.28675e-12
2.27762e-12
2.27751e-12
2.28031e-12
2.2846e-12
2.28829e-12
2.29408e-12
2.28969e-12
2.29014e-12
2.3002e-12
2.2979e-12
2.29689e-12
2.29743e-12
2.30558e-12
2.30535e-12
2.30688e-12
2.31166e-12
2.31364e-12
2.31361e-12
2.30413e-12
2.2987e-12
2.30732e-12
2.30994e-12
2.29703e-12
2.28508e-12
2.27713e-12
2.27193e-12
2.28544e-12
2.26662e-12
2.27938e-12
2.29884e-12
2.29041e-12
2.29274e-12
2.28535e-12
2.28477e-12
2.28504e-12
2.28755e-12
2.2942e-12
2.29226e-12
2.29132e-12
2.2913e-12
2.29504e-12
2.29921e-12
2.30449e-12
2.30188e-12
2.30944e-12
2.30911e-12
2.31348e-12
2.32332e-12
2.31858e-12
2.31716e-12
2.32086e-12
2.31852e-12
2.31696e-12
2.31188e-12
2.30106e-12
2.2868e-12
2.2815e-12
2.27879e-12
2.28153e-12
2.27524e-12
2.29347e-12
2.30207e-12
2.28759e-12
2.28942e-12
2.28838e-12
2.29164e-12
2.29056e-12
2.29115e-12
2.29188e-12
2.29294e-12
2.29296e-12
2.29222e-12
2.29767e-12
2.30017e-12
2.30674e-12
2.30538e-12
2.31312e-12
2.31042e-12
2.31336e-12
2.32872e-12
2.33746e-12
2.33349e-12
2.32283e-12
2.3233e-12
2.31973e-12
2.31886e-12
2.30337e-12
2.28878e-12
2.28301e-12
2.27892e-12
2.29266e-12
2.28132e-12
2.29659e-12
2.30429e-12
2.29047e-12
2.28702e-12
2.28698e-12
2.28832e-12
2.29252e-12
2.29092e-12
2.29038e-12
2.29299e-12
2.29326e-12
2.29421e-12
2.29742e-12
2.30033e-12
2.3063e-12
2.30795e-12
2.31752e-12
2.31688e-12
2.31908e-12
2.32972e-12
2.32738e-12
2.32886e-12
2.32689e-12
2.32627e-12
2.32416e-12
2.32102e-12
2.30477e-12
2.28896e-12
2.28508e-12
2.28349e-12
2.28889e-12
2.28338e-12
2.27889e-12
2.29049e-12
2.28381e-12
2.28316e-12
2.28242e-12
2.2855e-12
2.28889e-12
2.28836e-12
2.29184e-12
2.29438e-12
2.29285e-12
2.29288e-12
2.29955e-12
2.30109e-12
2.30267e-12
2.30714e-12
2.31472e-12
2.31633e-12
2.3168e-12
2.3279e-12
2.33026e-12
2.32875e-12
2.32377e-12
2.32443e-12
2.32428e-12
2.32697e-12
2.30436e-12
2.29117e-12
2.28818e-12
2.27956e-12
2.29231e-12
2.28052e-12
2.28721e-12
2.29301e-12
2.2794e-12
2.27847e-12
2.27924e-12
2.28296e-12
2.28406e-12
2.28629e-12
2.2896e-12
2.29476e-12
2.29609e-12
2.29851e-12
2.30042e-12
2.30269e-12
2.30573e-12
2.31251e-12
2.31608e-12
2.32155e-12
2.32124e-12
2.32782e-12
2.32529e-12
2.32446e-12
2.32289e-12
2.32242e-12
2.32652e-12
2.32236e-12
2.30276e-12
2.28675e-12
2.28353e-12
2.28153e-12
2.28571e-12
2.2795e-12
2.27516e-12
2.28473e-12
2.28038e-12
2.28144e-12
2.27816e-12
2.28101e-12
2.28308e-12
2.28466e-12
2.28589e-12
2.29359e-12
2.29689e-12
2.30248e-12
2.30339e-12
2.30368e-12
2.30668e-12
2.31553e-12
2.3162e-12
2.32013e-12
2.32037e-12
2.3271e-12
2.32532e-12
2.32282e-12
2.32023e-12
2.32005e-12
2.32049e-12
2.31863e-12
2.2991e-12
2.28729e-12
2.28817e-12
2.27974e-12
2.28834e-12
2.27897e-12
2.27901e-12
2.28969e-12
2.28154e-12
2.28195e-12
2.27612e-12
2.27936e-12
2.28147e-12
2.28376e-12
2.2865e-12
2.29306e-12
2.29604e-12
2.30058e-12
2.30395e-12
2.30245e-12
2.30358e-12
2.31144e-12
2.31366e-12
2.31848e-12
2.32235e-12
2.32693e-12
2.32e-12
2.31767e-12
2.32174e-12
2.32315e-12
2.32248e-12
2.31835e-12
2.3016e-12
2.28519e-12
2.28141e-12
2.28292e-12
2.28284e-12
2.28113e-12
2.2742e-12
2.27882e-12
2.27808e-12
2.27943e-12
2.27302e-12
2.27539e-12
2.27923e-12
2.28204e-12
2.28345e-12
2.28994e-12
2.2932e-12
2.29792e-12
2.303e-12
2.30242e-12
2.30506e-12
2.30176e-12
2.3106e-12
2.31531e-12
2.31836e-12
2.3247e-12
2.32141e-12
2.31774e-12
2.31703e-12
2.31953e-12
2.31826e-12
2.31391e-12
2.29768e-12
2.28453e-12
2.28318e-12
2.27755e-12
2.28728e-12
2.27498e-12
2.26946e-12
2.28076e-12
2.27338e-12
2.2731e-12
2.27009e-12
2.273e-12
2.27428e-12
2.27759e-12
2.27692e-12
2.28576e-12
2.28872e-12
2.29217e-12
2.29379e-12
2.29671e-12
2.29747e-12
2.29502e-12
2.30187e-12
2.30762e-12
2.31448e-12
2.32124e-12
2.3173e-12
2.31054e-12
2.31161e-12
2.31212e-12
2.31003e-12
2.30608e-12
2.29205e-12
2.28048e-12
2.27636e-12
2.27396e-12
2.27317e-12
2.26195e-12
2.26009e-12
2.26779e-12
2.26873e-12
2.26767e-12
2.26551e-12
2.26802e-12
2.27005e-12
2.27252e-12
2.27107e-12
2.27899e-12
2.28328e-12
2.28698e-12
2.29193e-12
2.29303e-12
2.2908e-12
2.28632e-12
2.29538e-12
2.29761e-12
2.30493e-12
2.31536e-12
2.31255e-12
2.30799e-12
2.30355e-12
2.3053e-12
2.30282e-12
2.29572e-12
2.28068e-12
2.26883e-12
2.27102e-12
2.2625e-12
2.27229e-12
2.26213e-12
2.27182e-12
2.26717e-12
2.26087e-12
2.25942e-12
2.26002e-12
2.26391e-12
2.26551e-12
2.26729e-12
2.26949e-12
2.27471e-12
2.27881e-12
2.28181e-12
2.28589e-12
2.28769e-12
2.28371e-12
2.28089e-12
2.28774e-12
2.2913e-12
2.29902e-12
2.30892e-12
2.30527e-12
2.29951e-12
2.29691e-12
2.2985e-12
2.29231e-12
2.29113e-12
2.26966e-12
2.26307e-12
2.26431e-12
2.2578e-12
2.25914e-12
2.25239e-12
2.25514e-12
2.25817e-12
2.25097e-12
2.25286e-12
2.25318e-12
2.25662e-12
2.25978e-12
2.26236e-12
2.26507e-12
2.26901e-12
2.27377e-12
2.27613e-12
2.28125e-12
2.28218e-12
2.27866e-12
2.27746e-12
2.28452e-12
2.28555e-12
2.28934e-12
2.29866e-12
2.2956e-12
2.29216e-12
2.28745e-12
2.28786e-12
2.28047e-12
2.27802e-12
2.26042e-12
2.25431e-12
2.25566e-12
2.25188e-12
2.26313e-12
2.25043e-12
2.24331e-12
2.2541e-12
2.24579e-12
2.24428e-12
2.2464e-12
2.25253e-12
2.2553e-12
2.25745e-12
2.26003e-12
2.26446e-12
2.26881e-12
2.27039e-12
2.27429e-12
2.27678e-12
2.2744e-12
2.27376e-12
2.27541e-12
2.27742e-12
2.28137e-12
2.29017e-12
2.28811e-12
2.27863e-12
2.27522e-12
2.27245e-12
2.27465e-12
2.27683e-12
2.26013e-12
2.24959e-12
2.25137e-12
2.24054e-12
2.24572e-12
2.2368e-12
2.22809e-12
2.24312e-12
2.23884e-12
2.23872e-12
2.23839e-12
2.24478e-12
2.24923e-12
2.25166e-12
2.25482e-12
2.25867e-12
2.26367e-12
2.26302e-12
2.26949e-12
2.27073e-12
2.26773e-12
2.26677e-12
2.26524e-12
2.27189e-12
2.26894e-12
2.28226e-12
2.2787e-12
2.27209e-12
2.26992e-12
2.2637e-12
2.26903e-12
2.26429e-12
2.25184e-12
2.23845e-12
2.23619e-12
2.23794e-12
2.25266e-12
2.24289e-12
2.23368e-12
2.23561e-12
2.2307e-12
2.23315e-12
2.23306e-12
2.24014e-12
2.24343e-12
2.2462e-12
2.24941e-12
2.25323e-12
2.25716e-12
2.25336e-12
2.25782e-12
2.2634e-12
2.25953e-12
2.26372e-12
2.26113e-12
2.26688e-12
2.26792e-12
2.27438e-12
2.27233e-12
2.2587e-12
2.25711e-12
2.2605e-12
2.2607e-12
2.26173e-12
2.24671e-12
2.22993e-12
2.2355e-12
2.23047e-12
2.23221e-12
2.22322e-12
2.21088e-12
2.23068e-12
2.2212e-12
2.22841e-12
2.2264e-12
2.23232e-12
2.23662e-12
2.24091e-12
2.24397e-12
2.24868e-12
2.25471e-12
2.25411e-12
2.25854e-12
2.25974e-12
2.25587e-12
2.2601e-12
2.26075e-12
2.25972e-12
2.2595e-12
2.26644e-12
2.25981e-12
2.25052e-12
2.2534e-12
2.25477e-12
2.2524e-12
2.25405e-12
2.23878e-12
2.22198e-12
2.22577e-12
2.2199e-12
2.2329e-12
2.21803e-12
2.20691e-12
2.21608e-12
2.21447e-12
2.21983e-12
2.21313e-12
2.22096e-12
2.23104e-12
2.23473e-12
2.23999e-12
2.24639e-12
2.25086e-12
2.24813e-12
2.25423e-12
2.25658e-12
2.25698e-12
2.25726e-12
2.25694e-12
2.25446e-12
2.25086e-12
2.25968e-12
2.25612e-12
2.24449e-12
2.24482e-12
2.2477e-12
2.24459e-12
2.24855e-12
2.23553e-12
2.21873e-12
2.21875e-12
2.20533e-12
2.20418e-12
2.19904e-12
2.19242e-12
2.20543e-12
2.20917e-12
2.21686e-12
2.21329e-12
2.21972e-12
2.22625e-12
2.22888e-12
2.23759e-12
2.24311e-12
2.24796e-12
2.24662e-12
2.25251e-12
2.25426e-12
2.25272e-12
2.25273e-12
2.25248e-12
2.25097e-12
2.24738e-12
2.25467e-12
2.24864e-12
2.23906e-12
2.24581e-12
2.24866e-12
2.25084e-12
2.24589e-12
2.22893e-12
2.21074e-12
2.20802e-12
2.1949e-12
2.19986e-12
2.19217e-12
2.18179e-12
2.19364e-12
2.19443e-12
2.20057e-12
2.19987e-12
2.21294e-12
2.21953e-12
2.22103e-12
2.23334e-12
2.238e-12
2.2438e-12
2.24402e-12
2.24923e-12
2.25265e-12
2.25289e-12
2.24966e-12
2.25012e-12
2.24332e-12
2.24358e-12
2.25308e-12
2.25007e-12
2.24344e-12
2.24522e-12
2.2447e-12
2.24274e-12
2.24326e-12
2.22794e-12
2.21158e-12
2.20388e-12
2.19557e-12
2.19262e-12
2.17817e-12
2.15759e-12
2.17234e-12
2.1774e-12
2.1931e-12
2.19843e-12
2.20753e-12
2.21859e-12
2.22592e-12
2.232e-12
2.23603e-12
2.24164e-12
2.24326e-12
2.24828e-12
2.25134e-12
2.25228e-12
2.24867e-12
2.2494e-12
2.24472e-12
2.24325e-12
2.25e-12
2.24812e-12
2.24704e-12
2.24563e-12
2.24206e-12
2.24451e-12
2.23736e-12
2.21436e-12
2.20292e-12
2.20403e-12
2.18793e-12
2.18105e-12
2.16458e-12
2.09411e-12
2.12771e-12
2.15566e-12
2.18213e-12
2.18443e-12
2.2086e-12
2.21627e-12
2.21997e-12
2.23084e-12
2.23417e-12
2.24177e-12
2.23972e-12
2.24281e-12
2.25182e-12
2.25398e-12
2.25002e-12
2.25123e-12
2.24747e-12
2.24527e-12
2.25357e-12
2.25189e-12
2.25171e-12
2.2464e-12
2.24279e-12
2.23771e-12
2.22975e-12
2.21542e-12
2.20409e-12
2.19598e-12
2.17551e-12
2.17184e-12
2.12924e-12
1.93087e-12
2.04074e-12
2.13555e-12
2.17436e-12
2.18378e-12
2.20342e-12
2.21684e-12
2.22453e-12
2.23336e-12
2.23509e-12
2.24012e-12
2.24283e-12
2.24829e-12
2.25453e-12
2.2512e-12
2.25268e-12
2.25417e-12
2.25389e-12
2.24983e-12
2.26038e-12
2.25699e-12
2.25555e-12
2.24988e-12
2.24731e-12
2.24344e-12
2.23801e-12
2.22059e-12
2.19987e-12
2.19036e-12
2.16195e-12
2.13487e-12
2.05426e-12
1.94356e-12
2.07145e-12
2.13982e-12
2.16948e-12
2.19772e-12
2.21882e-12
2.22733e-12
2.23286e-12
2.24191e-12
2.24549e-12
2.24987e-12
2.25017e-12
2.25323e-12
2.258e-12
2.26361e-12
2.2606e-12
2.2672e-12
2.27003e-12
2.26947e-12
2.26932e-12
2.26724e-12
2.26932e-12
2.26143e-12
2.25657e-12
2.25841e-12
2.24287e-12
2.22026e-12
2.19907e-12
2.19182e-12
2.16985e-12
2.13523e-12
2.06312e-12
2.06752e-12
2.11078e-12
2.15667e-12
2.18489e-12
2.20932e-12
2.22327e-12
2.23327e-12
2.2421e-12
2.24912e-12
2.2528e-12
2.25827e-12
2.2563e-12
2.26361e-12
2.26491e-12
2.26794e-12
2.26724e-12
2.27254e-12
2.27664e-12
2.2715e-12
2.27531e-12
2.27014e-12
2.26958e-12
2.26849e-12
2.26761e-12
2.26693e-12
2.24861e-12
2.23177e-12
2.20726e-12
2.19614e-12
2.181e-12
2.15018e-12
2.10803e-12
2.13389e-12
2.1607e-12
2.17815e-12
2.20822e-12
2.21324e-12
2.22373e-12
2.24133e-12
2.25068e-12
2.25112e-12
2.2583e-12
2.26427e-12
2.26183e-12
2.26568e-12
2.26841e-12
2.27258e-12
2.27683e-12
2.28028e-12
2.28078e-12
2.28175e-12
2.28409e-12
2.27929e-12
2.28013e-12
2.27297e-12
2.27061e-12
2.27553e-12
2.26044e-12
2.23753e-12
2.21874e-12
2.21733e-12
2.19245e-12
2.17804e-12
2.14568e-12
2.18042e-12
2.19247e-12
2.20448e-12
2.22106e-12
2.23128e-12
2.24051e-12
2.26063e-12
2.26008e-12
2.25015e-12
2.26074e-12
2.26874e-12
2.26987e-12
2.27504e-12
2.27446e-12
2.27772e-12
2.28639e-12
2.28722e-12
2.28626e-12
2.28417e-12
2.29093e-12
2.28264e-12
2.27739e-12
2.27727e-12
2.28287e-12
2.28158e-12
2.272e-12
2.25059e-12
2.23872e-12
2.22744e-12
2.21668e-12
2.20335e-12
2.18124e-12
2.21249e-12
2.22349e-12
2.22765e-12
2.23787e-12
2.24041e-12
2.24882e-12
2.26742e-12
2.26869e-12
2.25668e-12
2.26998e-12
2.27586e-12
2.28299e-12
2.28153e-12
2.28081e-12
2.28578e-12
2.28978e-12
2.29698e-12
2.29863e-12
2.29208e-12
2.28963e-12
2.2868e-12
2.2879e-12
2.28495e-12
2.28671e-12
2.28654e-12
2.27396e-12
2.25911e-12
2.25059e-12
2.24784e-12
2.23611e-12
2.22075e-12
2.21161e-12
2.23345e-12
2.24189e-12
2.24418e-12
2.25589e-12
2.25988e-12
2.2642e-12
2.27337e-12
2.2691e-12
2.27013e-12
2.27808e-12
2.28102e-12
2.28988e-12
2.29173e-12
2.28814e-12
2.29611e-12
2.29829e-12
2.29743e-12
2.29695e-12
2.29733e-12
2.29537e-12
2.29165e-12
2.29128e-12
2.28974e-12
2.28777e-12
2.2939e-12
2.28365e-12
2.26503e-12
2.25724e-12
2.24948e-12
2.24231e-12
2.2343e-12
2.23147e-12
2.25474e-12
2.2542e-12
2.25366e-12
2.26386e-12
2.26379e-12
2.27153e-12
2.27485e-12
2.27321e-12
2.27487e-12
2.28179e-12
2.28884e-12
2.29068e-12
2.29594e-12
2.29208e-12
2.29651e-12
2.29898e-12
2.29963e-12
2.30268e-12
2.30217e-12
2.30283e-12
2.29758e-12
2.30041e-12
2.29496e-12
2.29235e-12
2.29554e-12
2.28774e-12
2.27419e-12
2.26708e-12
2.25975e-12
2.25086e-12
2.24661e-12
2.24881e-12
2.2639e-12
2.2639e-12
2.26301e-12
2.27331e-12
2.26995e-12
2.27254e-12
2.27776e-12
2.28577e-12
2.28698e-12
2.287e-12
2.28689e-12
2.28972e-12
2.29428e-12
2.29542e-12
2.30269e-12
2.30073e-12
2.30402e-12
2.30352e-12
2.30514e-12
2.30949e-12
2.30308e-12
2.303e-12
2.29606e-12
2.29987e-12
2.30185e-12
2.29976e-12
2.27841e-12
2.26697e-12
2.27068e-12
2.25913e-12
2.26226e-12
2.26596e-12
2.28038e-12
2.28079e-12
2.2759e-12
2.27997e-12
2.27848e-12
2.27914e-12
2.28127e-12
2.29099e-12
2.29365e-12
2.29525e-12
2.2898e-12
2.29483e-12
2.29898e-12
2.29987e-12
2.30571e-12
2.29923e-12
2.30638e-12
2.31081e-12
2.31345e-12
2.30809e-12
2.30651e-12
2.30773e-12
2.30121e-12
2.30679e-12
2.31366e-12
2.3005e-12
2.28578e-12
2.27833e-12
2.2807e-12
2.2736e-12
2.26872e-12
2.27051e-12
2.28112e-12
2.28651e-12
2.28546e-12
2.28824e-12
2.28077e-12
2.28093e-12
2.28258e-12
2.28729e-12
2.28872e-12
2.2947e-12
2.29309e-12
2.29711e-12
2.30391e-12
2.30303e-12
2.30406e-12
2.29926e-12
2.30424e-12
2.31259e-12
2.31312e-12
2.31519e-12
2.31568e-12
2.31323e-12
2.30646e-12
2.30776e-12
2.31579e-12
2.31276e-12
2.2919e-12
2.2843e-12
2.28808e-12
2.27949e-12
2.28607e-12
2.27486e-12
2.29059e-12
2.29623e-12
2.29081e-12
2.29322e-12
2.28946e-12
2.28721e-12
2.28604e-12
2.28974e-12
2.29292e-12
2.29668e-12
2.2937e-12
2.29954e-12
2.29984e-12
2.30145e-12
2.30417e-12
2.30238e-12
2.30786e-12
2.31719e-12
2.31321e-12
2.31755e-12
2.32101e-12
2.32263e-12
2.31476e-12
2.31569e-12
2.31893e-12
2.31043e-12
2.29682e-12
2.28956e-12
2.29059e-12
2.28474e-12
2.27452e-12
2.27725e-12
2.29077e-12
2.29524e-12
2.29203e-12
2.29581e-12
2.29165e-12
2.28876e-12
2.28835e-12
2.29156e-12
2.29243e-12
2.29347e-12
2.29406e-12
2.29975e-12
2.2995e-12
2.30024e-12
2.30306e-12
2.30676e-12
2.30966e-12
2.31312e-12
2.31604e-12
2.32398e-12
2.32357e-12
2.32235e-12
2.31931e-12
2.32245e-12
2.31976e-12
2.31444e-12
2.2975e-12
2.29612e-12
2.28872e-12
2.28541e-12
2.29853e-12
2.27865e-12
2.30128e-12
2.29922e-12
2.29091e-12
2.2921e-12
2.29045e-12
2.28855e-12
2.28844e-12
2.28944e-12
2.29095e-12
2.29032e-12
2.29441e-12
2.2985e-12
2.29848e-12
2.2982e-12
2.30091e-12
2.3058e-12
2.31326e-12
2.3172e-12
2.31189e-12
2.3175e-12
2.32289e-12
2.32186e-12
2.31942e-12
2.32518e-12
2.3295e-12
2.31893e-12
2.29957e-12
2.2887e-12
2.28664e-12
2.28647e-12
2.2846e-12
2.28346e-12
2.27959e-12
2.28614e-12
2.27942e-12
2.28257e-12
2.27931e-12
2.28456e-12
2.28201e-12
2.28314e-12
2.28898e-12
2.29048e-12
2.29004e-12
2.29168e-12
2.29623e-12
2.29831e-12
2.29934e-12
2.30183e-12
2.31252e-12
2.31747e-12
2.3151e-12
2.31871e-12
2.31886e-12
2.31817e-12
2.32026e-12
2.32495e-12
2.3292e-12
2.32007e-12
2.29685e-12
2.29385e-12
2.28675e-12
2.28173e-12
2.30099e-12
2.28131e-12
2.28189e-12
2.28818e-12
2.27732e-12
2.27545e-12
2.27275e-12
2.27705e-12
2.27648e-12
2.27999e-12
2.28871e-12
2.28986e-12
2.29229e-12
2.29419e-12
2.29325e-12
2.30141e-12
2.30084e-12
2.30532e-12
2.31317e-12
2.31565e-12
2.31648e-12
2.31873e-12
2.31951e-12
2.316e-12
2.31615e-12
2.32144e-12
2.32502e-12
2.31916e-12
2.29723e-12
2.28807e-12
2.28873e-12
2.28312e-12
2.27705e-12
2.27582e-12
2.28291e-12
2.2819e-12
2.26783e-12
2.27424e-12
2.27004e-12
2.27552e-12
2.27505e-12
2.27951e-12
2.28161e-12
2.28781e-12
2.28869e-12
2.29743e-12
2.29747e-12
2.29914e-12
2.3015e-12
2.30461e-12
2.30867e-12
2.31488e-12
2.31451e-12
2.31676e-12
2.31673e-12
2.31151e-12
2.313e-12
2.31398e-12
2.31852e-12
2.31409e-12
2.29232e-12
2.28888e-12
2.28643e-12
2.28431e-12
2.29617e-12
2.27702e-12
2.27017e-12
2.28552e-12
2.27226e-12
2.27362e-12
2.26635e-12
2.27005e-12
2.27613e-12
2.27916e-12
2.28174e-12
2.28476e-12
2.29056e-12
2.29662e-12
2.29748e-12
2.29552e-12
2.30021e-12
2.3007e-12
2.30386e-12
2.31449e-12
2.31663e-12
2.31536e-12
2.31021e-12
2.31322e-12
2.31423e-12
2.31796e-12
2.31888e-12
2.3102e-12
2.29422e-12
2.28502e-12
2.28941e-12
2.28058e-12
2.27307e-12
2.26547e-12
2.27024e-12
2.27249e-12
2.26397e-12
2.26808e-12
2.26326e-12
2.26641e-12
2.26915e-12
2.27519e-12
2.27605e-12
2.28513e-12
2.29119e-12
2.29359e-12
2.29598e-12
2.29607e-12
2.30019e-12
2.29927e-12
2.30281e-12
2.31054e-12
2.31426e-12
2.31143e-12
2.30796e-12
2.30997e-12
2.31239e-12
2.31065e-12
2.31444e-12
2.30347e-12
2.28428e-12
2.27832e-12
2.27584e-12
2.27171e-12
2.27968e-12
2.26838e-12
2.26641e-12
2.27365e-12
2.262e-12
2.2647e-12
2.26017e-12
2.26555e-12
2.26823e-12
2.27248e-12
2.2736e-12
2.28155e-12
2.28527e-12
2.28798e-12
2.28779e-12
2.28781e-12
2.29587e-12
2.29153e-12
2.2953e-12
2.29937e-12
2.30757e-12
2.30719e-12
2.3021e-12
2.30286e-12
2.30455e-12
2.30808e-12
2.30914e-12
2.30231e-12
2.28517e-12
2.2769e-12
2.27329e-12
2.26453e-12
2.26484e-12
2.25576e-12
2.26061e-12
2.26405e-12
2.25713e-12
2.25864e-12
2.25533e-12
2.25728e-12
2.26231e-12
2.26772e-12
2.27061e-12
2.27548e-12
2.27914e-12
2.28009e-12
2.28415e-12
2.28509e-12
2.2896e-12
2.2844e-12
2.28952e-12
2.28887e-12
2.29534e-12
2.3018e-12
2.3002e-12
2.29789e-12
2.3007e-12
2.3026e-12
2.30223e-12
2.29317e-12
2.27356e-12
2.26498e-12
2.26257e-12
2.25522e-12
2.26749e-12
2.25665e-12
2.25783e-12
2.26199e-12
2.25455e-12
2.25596e-12
2.25106e-12
2.25553e-12
2.25506e-12
2.26054e-12
2.26502e-12
2.27141e-12
2.27462e-12
2.27615e-12
2.27721e-12
2.28178e-12
2.28044e-12
2.2779e-12
2.28272e-12
2.28798e-12
2.29087e-12
2.29417e-12
2.29501e-12
2.29437e-12
2.28875e-12
2.29317e-12
2.29166e-12
2.28691e-12
2.26504e-12
2.25729e-12
2.26121e-12
2.251e-12
2.24922e-12
2.2436e-12
2.24755e-12
2.25487e-12
2.24329e-12
2.24712e-12
2.24545e-12
2.24661e-12
2.25235e-12
2.25716e-12
2.26172e-12
2.26631e-12
2.27047e-12
2.27136e-12
2.26934e-12
2.27742e-12
2.27748e-12
2.27598e-12
2.27765e-12
2.28249e-12
2.28519e-12
2.28948e-12
2.28206e-12
2.28401e-12
2.28016e-12
2.27961e-12
2.2777e-12
2.27134e-12
2.25398e-12
2.24841e-12
2.25019e-12
2.24146e-12
2.25023e-12
2.24324e-12
2.23515e-12
2.25037e-12
2.23963e-12
2.24217e-12
2.24006e-12
2.24502e-12
2.24649e-12
2.25333e-12
2.25743e-12
2.2616e-12
2.26412e-12
2.26319e-12
2.26384e-12
2.27192e-12
2.26832e-12
2.26603e-12
2.26686e-12
2.27723e-12
2.2798e-12
2.27625e-12
2.27378e-12
2.27523e-12
2.27466e-12
2.27339e-12
2.27143e-12
2.26353e-12
2.25212e-12
2.24486e-12
2.24722e-12
2.2377e-12
2.23974e-12
2.23035e-12
2.23263e-12
2.23951e-12
2.23644e-12
2.23579e-12
2.22971e-12
2.24011e-12
2.24444e-12
2.24928e-12
2.2526e-12
2.25545e-12
2.26171e-12
2.26025e-12
2.2631e-12
2.26745e-12
2.2667e-12
2.26125e-12
2.2611e-12
2.26985e-12
2.27339e-12
2.27173e-12
2.2682e-12
2.26524e-12
2.26623e-12
2.26489e-12
2.26842e-12
2.25766e-12
2.24477e-12
2.23325e-12
2.23324e-12
2.22649e-12
2.23479e-12
2.23096e-12
2.23421e-12
2.23886e-12
2.22667e-12
2.23032e-12
2.22748e-12
2.23389e-12
2.23896e-12
2.24346e-12
2.24614e-12
2.24291e-12
2.25183e-12
2.25547e-12
2.25779e-12
2.26265e-12
2.26333e-12
2.26118e-12
2.25887e-12
2.26566e-12
2.26879e-12
2.26839e-12
2.26503e-12
2.2589e-12
2.25303e-12
2.25735e-12
2.26395e-12
2.25424e-12
2.23982e-12
2.227e-12
2.22791e-12
2.22421e-12
2.22675e-12
2.21826e-12
2.22366e-12
2.23024e-12
2.21964e-12
2.22315e-12
2.22365e-12
2.22975e-12
2.22976e-12
2.23657e-12
2.23763e-12
2.24073e-12
2.25014e-12
2.24996e-12
2.25256e-12
2.25874e-12
2.26072e-12
2.25999e-12
2.25414e-12
2.2536e-12
2.25789e-12
2.26277e-12
2.25223e-12
2.25423e-12
2.25097e-12
2.25048e-12
2.25675e-12
2.25108e-12
2.23138e-12
2.21659e-12
2.21886e-12
2.2116e-12
2.21443e-12
2.21823e-12
2.20764e-12
2.21658e-12
2.21199e-12
2.21646e-12
2.21621e-12
2.2195e-12
2.22625e-12
2.22867e-12
2.23278e-12
2.24047e-12
2.24682e-12
2.24628e-12
2.25081e-12
2.25589e-12
2.25944e-12
2.25716e-12
2.25084e-12
2.24886e-12
2.25224e-12
2.25148e-12
2.24753e-12
2.24866e-12
2.24697e-12
2.24615e-12
2.25285e-12
2.24554e-12
2.22331e-12
2.20831e-12
2.20924e-12
2.20187e-12
2.20623e-12
2.19627e-12
2.19664e-12
2.20752e-12
2.206e-12
2.21166e-12
2.21225e-12
2.21608e-12
2.22065e-12
2.22235e-12
2.23269e-12
2.23945e-12
2.24574e-12
2.24328e-12
2.25308e-12
2.25279e-12
2.25095e-12
2.2504e-12
2.24828e-12
2.24467e-12
2.24214e-12
2.25064e-12
2.24578e-12
2.24148e-12
2.24782e-12
2.24608e-12
2.2513e-12
2.24123e-12
2.22247e-12
2.20236e-12
2.2033e-12
2.19774e-12
2.19249e-12
2.18705e-12
2.18548e-12
2.19794e-12
2.198e-12
2.20272e-12
2.20469e-12
2.207e-12
2.2147e-12
2.2211e-12
2.22964e-12
2.23273e-12
2.2369e-12
2.24225e-12
2.24891e-12
2.2517e-12
2.25184e-12
2.24411e-12
2.2412e-12
2.24663e-12
2.24428e-12
2.24863e-12
2.24643e-12
2.24736e-12
2.24941e-12
2.24672e-12
2.25007e-12
2.23888e-12
2.21651e-12
2.20087e-12
2.20159e-12
2.19247e-12
2.1962e-12
2.18421e-12
2.16521e-12
2.17392e-12
2.18636e-12
2.19615e-12
2.20332e-12
2.20914e-12
2.21867e-12
2.22505e-12
2.22861e-12
2.22953e-12
2.23687e-12
2.23995e-12
2.24654e-12
2.2466e-12
2.24899e-12
2.24344e-12
2.24518e-12
2.24693e-12
2.24847e-12
2.25569e-12
2.25045e-12
2.25156e-12
2.24866e-12
2.24822e-12
2.24864e-12
2.23067e-12
2.21147e-12
2.19682e-12
2.19878e-12
2.19282e-12
2.18271e-12
2.16578e-12
2.12728e-12
2.14687e-12
2.16618e-12
2.18412e-12
2.19583e-12
2.20901e-12
2.21922e-12
2.22128e-12
2.22855e-12
2.23336e-12
2.2406e-12
2.23982e-12
2.24584e-12
2.24631e-12
2.25249e-12
2.24651e-12
2.24702e-12
2.25423e-12
2.25673e-12
2.25683e-12
2.25694e-12
2.25932e-12
2.25161e-12
2.24547e-12
2.24174e-12
2.22785e-12
2.20938e-12
2.19911e-12
2.18831e-12
2.17209e-12
2.16796e-12
2.14414e-12
2.05536e-12
2.09835e-12
2.14812e-12
2.18015e-12
2.19956e-12
2.2135e-12
2.22487e-12
2.23043e-12
2.23527e-12
2.23844e-12
2.24934e-12
2.24736e-12
2.25081e-12
2.2498e-12
2.24799e-12
2.25726e-12
2.25564e-12
2.26063e-12
2.26064e-12
2.26827e-12
2.25878e-12
2.2601e-12
2.25392e-12
2.25334e-12
2.24819e-12
2.23658e-12
2.21412e-12
2.19467e-12
2.18347e-12
2.16304e-12
2.14007e-12
2.10254e-12
2.12494e-12
2.15088e-12
2.17426e-12
2.2024e-12
2.20696e-12
2.22955e-12
2.23664e-12
2.2415e-12
2.24849e-12
2.25038e-12
2.25697e-12
2.25504e-12
2.25812e-12
2.26553e-12
2.27066e-12
2.26739e-12
2.2728e-12
2.27304e-12
2.27179e-12
2.27725e-12
2.27097e-12
2.2732e-12
2.26787e-12
2.26268e-12
2.25914e-12
2.24862e-12
2.23486e-12
2.21138e-12
2.20284e-12
2.18558e-12
2.17162e-12
2.14195e-12
2.14495e-12
2.17371e-12
2.18452e-12
2.21083e-12
2.22294e-12
2.23299e-12
2.25146e-12
2.24465e-12
2.25497e-12
2.2555e-12
2.26208e-12
2.26425e-12
2.26789e-12
2.27482e-12
2.27415e-12
2.27162e-12
2.27798e-12
2.28105e-12
2.28004e-12
2.28378e-12
2.28006e-12
2.27792e-12
2.27875e-12
2.27572e-12
2.26994e-12
2.25821e-12
2.24567e-12
2.2277e-12
2.21303e-12
2.19022e-12
2.18119e-12
2.16055e-12
2.18523e-12
2.19179e-12
2.19479e-12
2.21895e-12
2.23364e-12
2.23616e-12
2.24768e-12
2.2557e-12
2.25985e-12
2.26108e-12
2.26632e-12
2.26765e-12
2.27005e-12
2.27551e-12
2.2827e-12
2.28142e-12
2.28378e-12
2.2867e-12
2.28682e-12
2.28963e-12
2.2908e-12
2.2897e-12
2.28278e-12
2.2796e-12
2.2809e-12
2.27246e-12
2.25741e-12
2.23462e-12
2.23024e-12
2.21107e-12
2.20096e-12
2.18473e-12
2.20809e-12
2.2175e-12
2.21659e-12
2.23569e-12
2.24187e-12
2.25043e-12
2.26439e-12
2.26495e-12
2.26478e-12
2.26952e-12
2.27415e-12
2.27824e-12
2.2821e-12
2.28184e-12
2.29041e-12
2.29379e-12
2.29399e-12
2.29547e-12
2.29158e-12
2.2968e-12
2.29219e-12
2.29001e-12
2.28999e-12
2.28972e-12
2.29208e-12
2.28054e-12
2.26831e-12
2.24761e-12
2.2386e-12
2.2273e-12
2.22207e-12
2.20565e-12
2.22728e-12
2.23785e-12
2.23273e-12
2.24234e-12
2.24875e-12
2.25777e-12
2.27119e-12
2.27447e-12
2.27036e-12
2.28074e-12
2.28669e-12
2.286e-12
2.28891e-12
2.28887e-12
2.29882e-12
2.30426e-12
2.30644e-12
2.3018e-12
2.29889e-12
2.29935e-12
2.29841e-12
2.29916e-12
2.29217e-12
2.29707e-12
2.29674e-12
2.28377e-12
2.27223e-12
2.25912e-12
2.25328e-12
2.24629e-12
2.23677e-12
2.21993e-12
2.24389e-12
2.25386e-12
2.24638e-12
2.25998e-12
2.2647e-12
2.2676e-12
2.27791e-12
2.2779e-12
2.28095e-12
2.28433e-12
2.29375e-12
2.2943e-12
2.29951e-12
2.29526e-12
2.29972e-12
2.3059e-12
2.31063e-12
2.3095e-12
2.30491e-12
2.30647e-12
2.30302e-12
2.30594e-12
2.30218e-12
2.29709e-12
2.298e-12
2.28961e-12
2.28038e-12
2.26352e-12
2.25611e-12
2.25009e-12
2.25091e-12
2.23685e-12
2.25859e-12
2.26424e-12
2.25997e-12
2.27078e-12
2.2711e-12
2.27292e-12
2.27666e-12
2.2801e-12
2.28141e-12
2.28782e-12
2.29785e-12
2.29505e-12
2.30315e-12
2.30024e-12
2.30413e-12
2.30534e-12
2.30821e-12
2.30859e-12
2.3104e-12
2.30932e-12
2.30755e-12
2.31152e-12
2.30558e-12
2.29993e-12
2.29957e-12
2.29389e-12
2.28141e-12
2.27165e-12
2.27063e-12
2.2579e-12
2.25644e-12
2.25502e-12
2.26977e-12
2.27676e-12
2.26458e-12
2.27797e-12
2.27877e-12
2.27697e-12
2.28333e-12
2.28836e-12
2.29179e-12
2.29308e-12
2.29325e-12
2.29719e-12
2.30583e-12
2.3044e-12
2.30939e-12
2.30599e-12
2.30967e-12
2.31047e-12
2.31549e-12
2.31689e-12
2.31319e-12
2.31727e-12
2.30599e-12
2.30194e-12
2.30098e-12
2.29809e-12
2.28577e-12
2.27402e-12
2.26904e-12
2.26379e-12
2.27097e-12
2.26784e-12
2.2775e-12
2.28294e-12
2.27732e-12
2.27847e-12
2.27987e-12
2.28431e-12
2.28951e-12
2.29258e-12
2.29492e-12
2.29313e-12
2.2952e-12
2.29717e-12
2.30476e-12
2.31136e-12
2.3137e-12
2.30771e-12
2.31108e-12
2.31345e-12
2.31778e-12
2.31642e-12
2.31608e-12
2.31036e-12
2.30621e-12
2.30892e-12
2.30937e-12
2.30372e-12
2.28843e-12
2.27768e-12
2.27981e-12
2.26966e-12
2.27493e-12
2.2708e-12
2.27982e-12
2.2914e-12
2.27867e-12
2.28732e-12
2.2827e-12
2.28299e-12
2.2882e-12
2.29387e-12
2.29048e-12
2.29162e-12
2.29473e-12
2.29766e-12
2.30486e-12
2.31229e-12
2.31125e-12
2.30869e-12
2.31697e-12
2.31643e-12
2.32167e-12
2.31998e-12
2.32812e-12
2.32852e-12
2.2971e-12
2.2925e-12
2.31166e-12
2.30993e-12
2.29575e-12
2.28587e-12
2.28284e-12
2.272e-12
2.28495e-12
2.26762e-12
2.28338e-12
2.29621e-12
2.28665e-12
2.28624e-12
2.28502e-12
2.28747e-12
2.28648e-12
2.29115e-12
2.29073e-12
2.29769e-12
2.30075e-12
2.30186e-12
2.30359e-12
2.30953e-12
2.3127e-12
2.31182e-12
2.31703e-12
2.32186e-12
2.32175e-12
2.32486e-12
2.32428e-12
2.31866e-12
2.31234e-12
2.30997e-12
2.31285e-12
2.30938e-12
2.29705e-12
2.2896e-12
2.28532e-12
2.27719e-12
2.27904e-12
2.26962e-12
2.28538e-12
2.29563e-12
2.2877e-12
2.2903e-12
2.28425e-12
2.28244e-12
2.286e-12
2.29411e-12
2.29437e-12
2.29594e-12
2.29264e-12
2.29878e-12
2.30267e-12
2.30592e-12
2.30665e-12
2.31229e-12
2.31331e-12
2.3156e-12
2.31546e-12
2.32355e-12
2.32702e-12
2.32561e-12
2.30927e-12
2.30648e-12
2.3134e-12
2.31415e-12
2.29874e-12
2.28824e-12
2.28663e-12
2.27837e-12
2.28771e-12
2.276e-12
2.28723e-12
2.30035e-12
2.28789e-12
2.28772e-12
2.28285e-12
2.27923e-12
2.28111e-12
2.28528e-12
2.28771e-12
2.2905e-12
2.28911e-12
2.29246e-12
2.2975e-12
2.30002e-12
2.30189e-12
2.31202e-12
2.31194e-12