/*--------------------------------*- C++ -*----------------------------------*\
| =========                 |                                                 |
| \\      /  F ield         | OpenFOAM: The Open Source CFD Toolbox           |
|  \\    /   O peration     | Version:  2512                                  |
|   \\  /    A nd           | Website:  www.openfoam.com                      |
|    \\/     M anipulation  |                                                 |
\*---------------------------------------------------------------------------*/
FoamFile
{
    version     2.0;
    format      ascii;
    arch        "LSB;label=32;scalar=64";
    class       surfaceScalarField;
    location    "0.1";
    object      phi;
}
// * * * * * * * * * * * * * * * * * * * * * * * * * * * * * * * * * * * * * //

dimensions      [0 3 -1 0 0 0 0];

oriented        oriented;

internalField   nonuniform List<scalar> 
95232
(
0.0385141
-1.18488e-16
-1.18005e-16
0.0385141
-3.84487e-17
-2.88461e-17
0.0385141
2.36131e-18
1.30433e-17
0.0385141
1.55348e-17
-5.38992e-19
0.0385141
-2.18725e-17
-1.9178e-17
0.0385141
-1.26846e-17
1.1037e-18
0.0385141
-3.41897e-18
2.81423e-18
0.0385141
1.81092e-18
-5.89986e-18
0.0385141
2.28744e-18
-1.29632e-18
0.0385141
1.34693e-17
-4.40406e-18
0.0385141
4.48971e-18
-2.39485e-18
0.0385141
1.81288e-18
-1.07048e-18
0.0385141
2.4213e-18
2.1393e-18
0.0385141
2.96806e-18
1.81421e-18
0.0385141
1.07566e-17
6.29442e-18
0.0385141
1.56508e-18
-3.5732e-18
0.0385141
3.76979e-17
1.20103e-17
0.0385141
8.6927e-18
6.92045e-19
0.0385141
-5.17526e-17
-1.62999e-17
0.0385141
-1.32971e-17
1.37756e-17
0.0385141
-1.11582e-17
-1.48569e-17
0.0385141
-4.89422e-18
-1.34791e-18
0.0385141
8.83164e-19
-2.26597e-18
0.0385141
3.26424e-18
-5.94453e-18
0.0385141
-2.99514e-18
1.73567e-18
0.0385141
2.08467e-17
-6.74142e-19
0.0385141
1.07286e-17
9.21969e-18
0.0385141
5.43602e-18
-1.07395e-17
0.0385141
-2.09125e-17
-2.82308e-17
0.0385141
-2.73133e-17
-1.97008e-17
0.0385141
-3.38682e-18
-1.39778e-17
-2.66986e-17
1.09018e-17
0.0385141
-4.13299e-17
-7.47995e-17
0.0385141
5.65958e-18
-3.84387e-17
0.0385141
-2.33369e-17
-2.48019e-17
0.0385141
-6.23475e-18
-7.15654e-18
0.0385141
-3.19743e-17
-8.17147e-18
0.0385141
-2.79104e-17
-2.23095e-18
0.0385141
-1.01597e-18
-2.21279e-18
0.0385141
-2.21027e-17
6.12635e-18
0.0385141
3.19654e-18
3.10136e-18
0.0385141
1.11603e-17
6.2064e-19
0.0385141
6.16875e-18
1.77537e-18
0.0385141
1.55526e-18
1.95252e-18
0.0385141
2.44106e-18
6.37601e-18
0.0385141
3.41334e-18
1.59555e-18
0.0385141
6.02114e-18
-2.99429e-18
0.0385141
7.16695e-19
8.36903e-20
0.0385141
2.53069e-17
-1.19093e-17
0.0385141
2.51579e-18
-1.00671e-17
0.0385141
-3.45413e-17
-1.82132e-17
0.0385141
-8.25327e-18
-8.7688e-18
0.0385141
-1.0341e-17
-7.26165e-18
0.0385141
-3.39258e-18
-9.30777e-18
0.0385141
-3.06298e-18
4.40304e-18
0.0385141
3.06778e-18
1.79243e-17
0.0385141
-1.16159e-18
1.28294e-17
0.0385141
-5.3348e-18
-9.3855e-18
0.0385141
3.66109e-18
-4.72385e-18
0.0385141
1.00756e-17
-2.5592e-17
0.0385141
1.87673e-18
1.62295e-17
0.0385141
-2.26538e-17
6.93891e-18
0.0385141
1.81604e-17
6.79624e-17
2.53157e-17
4.64771e-17
0.0385141
-3.9847e-18
-1.69766e-17
0.0385141
1.16778e-19
-7.59069e-18
0.0385141
-3.14309e-17
5.68358e-20
0.0385141
3.78694e-19
-1.33109e-17
0.0385141
-1.59548e-17
-1.76458e-18
0.0385141
-1.28502e-17
1.96193e-18
0.0385141
1.08253e-18
1.48755e-17
0.0385141
-2.28048e-17
-9.90575e-18
0.0385141
1.44759e-17
2.21468e-18
0.0385141
-1.18996e-17
-1.54951e-17
0.0385141
9.50245e-18
-9.98623e-19
0.0385141
-4.0233e-18
5.84757e-19
0.0385141
7.89813e-19
-1.44622e-18
0.0385141
6.69253e-19
-1.00179e-18
0.0385141
1.04901e-18
-6.74041e-19
0.0385141
7.7941e-19
-3.7505e-18
0.0385141
1.3646e-17
-1.1989e-18
0.0385141
-2.84187e-20
1.5877e-18
0.0385141
-1.19977e-17
-1.46837e-17
0.0385141
-7.54078e-18
2.89164e-18
0.0385141
-1.69495e-17
-9.2918e-19
0.0385141
5.57436e-18
-9.60268e-18
0.0385141
-5.04841e-18
1.86667e-18
0.0385141
-1.06766e-20
3.75198e-18
0.0385141
8.05264e-19
7.95444e-18
0.0385141
-1.13293e-17
-5.05383e-18
0.0385141
-1.4904e-18
-2.95664e-18
0.0385141
9.01197e-18
-1.32252e-17
0.0385141
1.24082e-17
-2.16329e-17
0.0385141
8.42492e-18
-3.46384e-20
0.0385141
-5.86592e-18
5.92753e-18
1.0585e-17
4.08002e-17
0.0385141
1.13727e-17
-3.60761e-17
0.0385141
-3.10901e-17
-3.21461e-17
0.0385141
-2.73148e-17
-8.25131e-18
0.0385141
1.07823e-17
-1.83918e-17
0.0385141
-6.66591e-18
-7.84203e-18
0.0385141
-1.004e-17
1.65181e-17
0.0385141
5.21438e-18
-1.33448e-17
0.0385141
-1.50702e-17
-3.63181e-19
0.0385141
2.49752e-18
1.21262e-18
0.0385141
-8.62978e-18
4.03808e-18
0.0385141
1.47059e-17
7.31705e-18
0.0385141
-4.75694e-18
1.64872e-18
0.0385141
2.4685e-18
4.47173e-19
0.0385141
-2.59007e-19
-1.57763e-18
0.0385141
-3.39315e-19
-8.50768e-19
0.0385141
4.38411e-19
-1.75101e-20
0.0385141
8.35952e-18
-9.49873e-18
0.0385141
-4.12908e-18
-7.94934e-19
0.0385141
-3.28092e-18
-9.18266e-18
0.0385141
-3.88138e-18
-3.3469e-18
0.0385141
-1.19236e-17
-5.51268e-18
0.0385141
8.52244e-18
-2.37749e-17
0.0385141
-1.32225e-17
-7.58152e-18
0.0385141
-7.43913e-18
1.69174e-17
0.0385141
3.25162e-18
5.81868e-18
0.0385141
-1.89709e-17
-9.18975e-18
0.0385141
-2.36998e-18
2.67159e-18
0.0385141
-1.58551e-17
-1.88355e-17
0.0385141
-6.63096e-18
-9.52554e-18
0.0385141
4.37314e-17
6.00432e-18
0.0385141
-7.92124e-18
5.7574e-17
2.90129e-17
5.6884e-17
0.0385141
-9.96497e-18
-2.869e-17
0.0385141
-2.56684e-17
-2.11938e-17
0.0385141
-1.60673e-17
-4.47589e-19
0.0385141
-6.96921e-18
-2.38185e-17
0.0385141
-3.59735e-18
-6.74468e-19
0.0385141
-1.38577e-17
-2.34118e-18
0.0385141
-6.46058e-18
-1.13379e-18
0.0385141
-7.50454e-18
-8.46416e-18
0.0385141
-2.50626e-17
7.3757e-18
0.0385141
1.52212e-18
-7.1149e-18
0.0385141
8.68942e-18
-4.41108e-18
0.0385141
-5.10146e-18
-2.57749e-18
0.0385141
2.4157e-18
1.95782e-18
0.0385141
-4.53426e-19
-1.58641e-18
0.0385141
-1.28384e-18
-2.34281e-18
0.0385141
-7.6548e-19
-7.23259e-19
0.0385141
2.7584e-18
-3.8176e-18
0.0385141
-1.98249e-18
-1.09153e-18
0.0385141
-1.84327e-17
-1.15988e-17
0.0385141
-5.90263e-18
1.4234e-18
0.0385141
1.01925e-17
1.67585e-17
0.0385141
8.84148e-18
-4.81178e-18
0.0385141
-1.19349e-17
-6.32604e-18
0.0385141
-9.20183e-18
4.58634e-18
0.0385141
3.40475e-18
2.62169e-18
0.0385141
-1.80803e-17
-5.87769e-18
0.0385141
-4.62265e-18
-4.36805e-19
0.0385141
-1.59419e-17
9.28878e-18
0.0385141
3.70487e-17
4.03141e-18
0.0385141
4.03611e-17
-1.27354e-17
0.0385141
1.31641e-17
1.24859e-17
3.82595e-17
5.51095e-17
0.0385141
-5.97866e-18
-3.20335e-17
0.0385141
-1.00129e-17
-2.54533e-17
0.0385141
-9.69478e-18
5.80629e-19
0.0385141
-9.70437e-18
-8.57028e-18
0.0385141
-3.90057e-18
-6.28127e-18
0.0385141
-6.46316e-18
8.75156e-18
0.0385141
-2.96757e-18
3.87366e-18
0.0385141
-4.93126e-18
1.52682e-18
0.0385141
-4.29913e-18
9.01491e-18
0.0385141
-5.39945e-19
3.43998e-19
0.0385141
-1.3509e-17
-1.3674e-17
0.0385141
-3.67936e-18
-3.81874e-18
0.0385141
-3.00964e-19
-1.20044e-18
0.0385141
3.13244e-20
-1.80764e-18
0.0385141
2.23916e-19
-1.23946e-18
0.0385141
-2.3269e-19
6.12565e-19
0.0385141
1.14321e-18
-6.36555e-18
0.0385141
-2.28523e-18
-2.88959e-19
0.0385141
-1.22499e-17
-7.34121e-18
0.0385141
-5.50303e-18
-5.11464e-19
0.0385141
-1.35621e-17
-9.47535e-18
0.0385141
-1.83713e-17
-2.82351e-17
0.0385141
9.27297e-18
-6.58932e-19
0.0385141
1.79179e-17
8.56711e-18
0.0385141
5.97052e-18
1.63341e-17
0.0385141
-1.2314e-17
3.61531e-18
0.0385141
-4.18975e-18
-4.23357e-18
0.0385141
-5.58624e-18
9.79144e-18
0.0385141
2.90289e-17
-6.81109e-19
0.0385141
2.25517e-17
-1.67014e-17
0.0385141
5.0562e-18
3.57096e-17
2.25105e-17
4.13471e-17
0.0385141
1.59592e-17
-4.87969e-17
0.0385141
-7.79598e-18
-1.4813e-17
0.0385141
-3.62926e-18
7.01843e-19
0.0385141
-1.39463e-18
-6.64809e-18
0.0385141
-3.7924e-18
-2.90159e-18
0.0385141
-7.37161e-18
-2.72801e-18
0.0385141
1.13462e-19
4.46477e-18
0.0385141
-4.66272e-18
-1.70385e-18
0.0385141
3.28073e-18
5.79104e-18
0.0385141
-2.40072e-18
-2.49372e-18
0.0385141
-1.08593e-17
-8.67106e-18
0.0385141
-8.88625e-19
-1.80824e-18
0.0385141
-4.73179e-18
1.79429e-18
0.0385141
-2.06236e-19
-1.69676e-18
0.0385141
2.37405e-18
-6.21511e-18
0.0385141
-6.35628e-19
9.86645e-19
0.0385141
-1.34571e-18
-4.16521e-18
0.0385141
5.25165e-19
-5.68127e-19
0.0385141
-7.59034e-18
-5.2867e-18
0.0385141
-6.89036e-18
-1.31398e-18
0.0385141
-1.82252e-17
5.56169e-18
0.0385141
-1.80605e-17
-5.56368e-18
0.0385141
1.30303e-17
-1.26913e-17
0.0385141
2.02996e-17
-5.09835e-18
0.0385141
3.06912e-18
1.79797e-17
0.0385141
-1.39695e-17
1.244e-17
0.0385141
-4.29853e-18
-2.41963e-18
0.0385141
1.37692e-18
3.91351e-18
0.0385141
6.99531e-18
-7.26433e-18
0.0385141
1.37666e-17
-1.91767e-17
0.0385141
-5.48458e-18
5.21761e-17
1.94294e-17
3.54803e-17
0.0385141
3.40547e-17
-3.63637e-17
0.0385141
6.9734e-18
-2.40015e-17
0.0385141
9.56048e-19
3.25792e-18
0.0385141
-5.01773e-19
-2.48867e-18
0.0385141
-1.46746e-18
2.65272e-19
0.0385141
-5.56252e-18
1.31371e-18
0.0385141
2.43327e-18
9.61364e-18
0.0385141
-3.13473e-18
-2.77119e-19
0.0385141
-3.91182e-18
7.98089e-18
0.0385141
-1.71432e-18
-1.21232e-19
0.0385141
-7.03564e-18
-1.02804e-17
0.0385141
-1.50276e-18
-4.67548e-18
0.0385141
-4.80261e-18
-2.83334e-18
0.0385141
-1.667e-18
-7.89663e-19
0.0385141
2.2862e-18
-3.02719e-18
0.0385141
-9.45662e-19
1.40779e-18
0.0385141
-2.9159e-18
-6.04913e-18
0.0385141
7.57348e-21
-6.01118e-18
0.0385141
-4.18813e-18
-7.03636e-18
0.0385141
-1.18106e-17
-1.33673e-18
0.0385141
-1.18162e-17
-3.00021e-18
0.0385141
-6.47314e-18
-2.27701e-17
0.0385141
3.46249e-18
6.48855e-19
0.0385141
1.06868e-17
-3.5621e-18
0.0385141
8.52263e-18
2.49699e-17
0.0385141
-1.2586e-17
-1.51574e-17
0.0385141
2.95906e-18
-1.91659e-17
0.0385141
7.18968e-18
3.39823e-17
0.0385141
7.84904e-18
1.61226e-17
0.0385141
4.46816e-19
-1.98102e-17
0.0385141
-3.23805e-17
3.97944e-17
3.51401e-18
4.23068e-17
0.0385141
3.93902e-17
-4.08791e-17
0.0385141
1.13683e-17
-1.87932e-17
0.0385141
4.67763e-18
2.10147e-18
0.0385141
1.90118e-18
-2.09081e-19
0.0385141
1.11359e-18
-3.60453e-18
0.0385141
1.3111e-18
-1.00658e-17
0.0385141
3.35684e-19
2.7192e-18
0.0385141
-2.09739e-18
-1.43675e-18
0.0385141
1.08008e-18
2.62039e-18
0.0385141
-5.19888e-18
1.17371e-17
0.0385141
-1.00105e-17
-5.54661e-18
0.0385141
2.92162e-19
-2.82166e-18
0.0385141
-3.67924e-18
9.56054e-19
0.0385141
-8.9915e-19
-1.56995e-18
0.0385141
2.33026e-18
-5.51004e-18
0.0385141
-9.30829e-19
-1.56617e-18
0.0385141
-3.51313e-18
-6.63418e-18
0.0385141
-1.80713e-19
3.6944e-18
0.0385141
-4.48027e-20
-3.48845e-18
0.0385141
-1.44176e-17
-1.0052e-17
0.0385141
-1.3783e-17
6.77597e-19
0.0385141
-7.12436e-18
1.54758e-18
0.0385141
7.03369e-18
-1.44238e-17
0.0385141
1.00937e-17
-3.71698e-18
0.0385141
1.27751e-17
2.63887e-17
0.0385141
-1.0771e-17
2.09535e-17
0.0385141
2.62303e-18
-3.57575e-18
0.0385141
9.63138e-18
-7.25668e-18
0.0385141
-4.08261e-18
-9.96239e-18
0.0385141
-9.7266e-18
-1.65889e-17
0.0385141
-3.35506e-17
4.92037e-17
6.21974e-18
3.77557e-17
0.0385141
-1.67242e-17
-3.66063e-17
0.0385141
9.35621e-18
-5.2485e-17
0.0385141
-4.38369e-18
-3.27685e-18
0.0385141
2.99069e-18
-5.70279e-19
0.0385141
1.90642e-19
2.64032e-18
0.0385141
1.81566e-18
1.56762e-18
0.0385141
-1.33077e-17
1.12089e-17
0.0385141
-2.88966e-20
-1.52648e-18
0.0385141
9.40459e-18
-1.09286e-18
0.0385141
-5.23627e-18
5.81035e-19
0.0385141
-2.4644e-18
-1.26929e-18
0.0385141
-7.44587e-19
-2.61632e-18
0.0385141
-3.29754e-18
-1.50404e-18
0.0385141
-8.41185e-19
-3.19744e-18
0.0385141
2.66407e-18
-4.2054e-18
0.0385141
-1.73615e-18
1.93203e-19
0.0385141
-3.42011e-18
-9.90666e-18
0.0385141
4.81924e-18
-1.50151e-17
0.0385141
1.78536e-17
-1.89709e-17
0.0385141
1.57354e-17
1.34265e-17
0.0385141
-9.09543e-18
-1.61381e-17
0.0385141
-1.92032e-17
-6.23752e-17
0.0385141
8.1405e-18
3.56405e-17
0.0385141
-1.30462e-17
3.9344e-17
0.0385141
-1.59087e-17
1.69517e-17
0.0385141
-1.13178e-17
1.08607e-17
0.0385141
3.46235e-18
-1.68934e-17
0.0385141
1.82377e-17
-1.37842e-18
0.0385141
4.06806e-18
3.54537e-18
0.0385141
-1.65936e-17
-1.6927e-17
0.0385141
1.67966e-17
5.85899e-17
1.33867e-17
8.07956e-17
0.0385141
8.58024e-18
-3.12911e-17
0.0385141
4.04081e-18
-3.5986e-17
0.0385141
1.08767e-18
-7.14048e-20
0.0385141
3.92489e-18
-1.0943e-20
0.0385141
1.13892e-18
-1.64286e-18
0.0385141
2.94237e-18
-3.19207e-20
0.0385141
-8.7911e-18
5.53e-18
0.0385141
-5.01182e-19
-2.56271e-18
0.0385141
8.62075e-18
-1.19005e-18
0.0385141
-4.47155e-18
1.33434e-18
0.0385141
-2.59973e-18
-1.97772e-18
0.0385141
-6.77614e-19
1.84509e-18
0.0385141
-5.27348e-18
-2.58581e-19
0.0385141
-5.41422e-19
-1.88853e-19
0.0385141
3.34271e-18
-2.17894e-18
0.0385141
-1.4486e-18
-1.4063e-17
0.0385141
-3.01158e-18
-3.92397e-18
0.0385141
6.818e-18
1.06536e-17
0.0385141
2.19652e-17
-4.1943e-18
0.0385141
1.83337e-17
-1.16322e-17
0.0385141
-1.35557e-17
5.59727e-20
0.0385141
-2.02533e-17
5.24459e-18
0.0385141
7.70864e-18
-1.34889e-17
0.0385141
-1.12898e-17
1.7225e-17
0.0385141
-1.34745e-17
2.96736e-17
0.0385141
-8.41777e-18
1.07458e-17
0.0385141
3.66288e-18
-7.69808e-18
0.0385141
2.21085e-17
-2.21145e-17
0.0385141
1.5813e-17
-1.25873e-17
0.0385141
-8.84095e-18
-1.2125e-17
0.0385141
-2.53272e-17
4.91482e-17
3.35327e-18
6.48017e-17
0.0385141
2.6494e-17
-4.91176e-17
0.0385141
2.2586e-17
-3.23211e-17
0.0385141
6.94127e-18
2.7869e-18
0.0385141
3.40956e-18
3.87041e-19
0.0385141
1.56216e-18
-8.7474e-19
0.0385141
4.02485e-18
2.9932e-18
0.0385141
-1.01475e-17
9.45406e-18
0.0385141
1.77565e-18
-7.03333e-18
0.0385141
1.03641e-17
-3.42326e-18
0.0385141
-1.99461e-18
2.50823e-18
0.0385141
-4.49575e-18
1.67171e-18
0.0385141
-1.50821e-18
1.24756e-20
0.0385141
-5.47081e-18
-4.85626e-18
0.0385141
-4.8239e-20
-7.00953e-19
0.0385141
4.71088e-18
3.1362e-19
0.0385141
1.65225e-19
-9.43785e-18
0.0385141
2.69385e-18
-2.59926e-17
0.0385141
1.08906e-17
1.30525e-18
0.0385141
4.32416e-18
-6.13653e-18
0.0385141
-1.69109e-17
-2.67823e-17
0.0385141
-2.18756e-19
1.65712e-17
0.0385141
1.14697e-17
6.56428e-18
0.0385141
-1.7724e-19
9.26843e-18
0.0385141
-1.07468e-17
2.45941e-17
0.0385141
-6.51079e-18
1.46202e-17
0.0385141
-7.35567e-18
4.84587e-18
0.0385141
3.72149e-18
-1.6854e-17
0.0385141
2.60989e-17
-9.99888e-18
0.0385141
-5.92299e-18
-1.70578e-17
0.0385141
-2.56155e-17
1.67443e-18
0.0385141
-1.87355e-17
9.3175e-17
-1.02062e-17
4.21867e-17
0.0385141
-3.02476e-17
-3.22991e-17
0.0385141
3.07143e-17
-5.40021e-17
0.0385141
9.68283e-18
-2.45146e-19
0.0385141
3.70536e-18
1.14072e-18
0.0385141
2.08267e-18
-1.49062e-18
0.0385141
2.9405e-18
-2.54541e-19
0.0385141
-1.1034e-17
2.98585e-18
0.0385141
1.95672e-18
-4.05222e-18
0.0385141
1.0871e-17
-8.3854e-18
0.0385141
-1.26064e-18
-8.09037e-20
0.0385141
-3.48139e-18
6.11515e-18
0.0385141
-1.58616e-18
5.03558e-18
0.0385141
-7.04949e-18
-1.25543e-19
0.0385141
-3.13821e-19
6.8072e-19
0.0385141
1.04116e-17
1.20653e-18
0.0385141
-5.78223e-19
-1.76448e-17
0.0385141
6.89327e-18
-1.51027e-17
0.0385141
1.22143e-17
1.29619e-17
0.0385141
6.44491e-18
-1.55211e-17
0.0385141
-1.30123e-17
-1.19772e-17
0.0385141
-5.07783e-18
2.05176e-17
0.0385141
4.15786e-18
8.33416e-18
0.0385141
-1.60651e-18
-1.01425e-17
0.0385141
-9.29714e-18
1.94097e-17
0.0385141
-5.45715e-18
2.70098e-17
0.0385141
-1.10915e-17
8.27844e-18
0.0385141
-3.04313e-19
-7.70515e-18
0.0385141
3.88626e-18
-2.74383e-17
0.0385141
-8.88537e-18
-8.81303e-18
0.0385141
-8.44776e-18
5.25885e-18
0.0385141
3.93092e-17
5.35632e-17
-5.74579e-18
7.05832e-17
0.0385141
-1.85982e-17
-2.37007e-17
0.0385141
1.28528e-17
-3.3372e-17
0.0385141
1.81629e-17
-8.86866e-18
0.0385141
3.7518e-18
8.17076e-20
0.0385141
1.6248e-18
-8.5062e-18
0.0385141
7.55144e-19
-1.48999e-19
0.0385141
1.17837e-17
-1.31839e-19
0.0385141
1.06488e-18
-2.36438e-18
0.0385141
-1.09461e-17
-1.92685e-18
0.0385141
-1.20907e-18
4.38809e-18
0.0385141
-1.96969e-18
3.56895e-18
0.0385141
-3.05188e-18
1.21802e-18
0.0385141
-6.74478e-18
-5.36789e-18
0.0385141
-5.01999e-20
-1.37089e-19
0.0385141
9.43241e-18
2.28898e-18
0.0385141
-3.08306e-18
-3.66392e-18
0.0385141
8.45859e-19
-9.1637e-18
0.0385141
-4.43812e-18
-1.20439e-17
0.0385141
-1.35442e-17
-1.47765e-17
0.0385141
-9.26691e-18
-1.07176e-17
0.0385141
1.96585e-17
9.36516e-18
0.0385141
1.85077e-17
1.67949e-17
0.0385141
-6.91525e-18
1.01897e-18
0.0385141
-1.88764e-19
5.0989e-18
0.0385141
-3.33686e-18
2.03204e-17
0.0385141
-5.1806e-19
-1.17508e-17
0.0385141
-3.26586e-20
-1.15865e-17
0.0385141
-4.14225e-18
6.71602e-18
0.0385141
-9.62881e-18
-2.14256e-17
0.0385141
1.04907e-18
1.68154e-17
0.0385141
1.58738e-17
7.90824e-17
-2.28612e-18
4.23248e-17
0.0385141
7.35545e-18
-1.80795e-17
0.0385141
1.52361e-17
-3.95036e-17
0.0385141
1.54014e-17
-7.07573e-19
0.0385141
7.43361e-19
2.26718e-18
0.0385141
2.16656e-18
-1.22933e-19
0.0385141
9.19162e-19
5.30143e-19
0.0385141
1.23083e-17
1.15112e-18
0.0385141
1.1434e-18
-1.27964e-18
0.0385141
-1.06514e-17
-7.21029e-19
0.0385141
1.11417e-18
-1.67161e-18
0.0385141
4.32461e-19
1.14929e-18
0.0385141
-4.19e-18
5.75545e-18
0.0385141
-7.46046e-18
-2.05619e-18
0.0385141
-3.20558e-19
1.61118e-18
0.0385141
8.6143e-18
1.7028e-18
0.0385141
-3.93858e-18
-1.66006e-17
0.0385141
7.67742e-19
-3.51769e-18
0.0385141
-2.05898e-18
9.34173e-18
0.0385141
-1.24971e-17
-6.5126e-18
0.0385141
-7.39997e-18
-1.50817e-17
0.0385141
1.62406e-17
7.81988e-19
0.0385141
1.84781e-17
1.29784e-17
0.0385141
-6.76384e-18
-1.04319e-17
0.0385141
1.38674e-18
1.88967e-17
0.0385141
-2.60529e-18
2.96051e-17
0.0385141
3.41058e-18
8.23064e-18
0.0385141
2.55688e-19
-8.84231e-18
0.0385141
-1.79971e-18
-2.48602e-17
0.0385141
-6.46597e-18
-2.28489e-17
0.0385141
-2.44185e-17
-1.1173e-18
0.0385141
-1.32251e-17
5.04275e-17
1.3515e-17
6.40397e-17
0.0385141
-2.46202e-17
-5.3287e-17
0.0385141
5.689e-18
-5.29755e-17
0.0385141
-1.52795e-17
-1.59595e-18
0.0385141
-3.16083e-18
-2.52144e-18
0.0385141
1.59603e-18
-1.95214e-18
0.0385141
-1.55708e-19
1.23658e-20
0.0385141
6.28212e-18
1.80712e-19
0.0385141
7.6081e-19
-2.37944e-18
0.0385141
-5.10718e-18
-1.59929e-18
0.0385141
-1.54555e-19
2.79815e-18
0.0385141
9.99862e-19
2.08257e-18
0.0385141
-2.37246e-18
1.70573e-18
0.0385141
-2.26399e-18
-1.17533e-17
0.0385141
4.65261e-19
6.49049e-19
0.0385141
4.05907e-18
1.21484e-17
0.0385141
-2.03789e-18
-2.97922e-18
0.0385141
-7.46642e-19
-1.49208e-17
0.0385141
2.78082e-18
-1.29712e-19
0.0385141
-2.18346e-18
-3.13988e-18
0.0385141
-2.55573e-18
-1.36688e-17
0.0385141
3.90097e-18
6.25734e-18
0.0385141
5.9638e-18
2.91125e-18
0.0385141
-2.93362e-18
-4.6723e-18
0.0385141
-3.71785e-18
2.50786e-17
0.0385141
-3.7033e-18
1.6071e-17
0.0385141
1.4212e-18
4.25398e-18
0.0385141
-1.40116e-19
-2.07369e-17
0.0385141
-4.51255e-20
-4.67587e-18
0.0385141
3.23221e-17
-5.01363e-18
0.0385141
-3.2653e-18
2.01797e-19
0.0385141
4.208e-18
8.46829e-17
4.1732e-18
6.32068e-17
0.0385141
-1.14087e-17
-1.0762e-18
0.0385141
1.11297e-17
-4.75623e-17
0.0385141
-1.4614e-17
-4.08231e-19
0.0385141
-2.59782e-18
1.67813e-18
0.0385141
1.80022e-18
9.40245e-19
0.0385141
1.31885e-18
3.29484e-18
0.0385141
5.34212e-18
3.49052e-20
0.0385141
6.83625e-19
-2.53007e-18
0.0385141
-4.81109e-18
1.5703e-18
0.0385141
3.16311e-20
6.49903e-19
0.0385141
2.87582e-18
-1.59851e-18
0.0385141
-2.71242e-18
3.59229e-18
0.0385141
4.25469e-18
-1.14776e-17
0.0385141
6.51318e-20
3.01814e-18
0.0385141
-3.35653e-18
1.05496e-17
0.0385141
-1.80729e-18
-8.16788e-18
0.0385141
-1.36273e-18
4.67169e-19
0.0385141
2.45233e-18
3.03101e-18
0.0385141
1.57932e-18
-6.86528e-18
0.0385141
-5.13382e-18
-1.71332e-17
0.0385141
4.06129e-18
-9.68994e-18
0.0385141
9.37762e-18
1.44696e-17
0.0385141
-3.75432e-18
-2.98972e-18
0.0385141
-2.5432e-18
1.4399e-17
0.0385141
-5.47816e-19
2.64775e-17
0.0385141
2.09706e-19
9.15238e-18
0.0385141
4.32877e-18
-1.45365e-17
0.0385141
3.83386e-18
-1.68459e-17
0.0385141
1.61644e-17
-1.6839e-17
0.0385141
2.3218e-18
9.50068e-18
0.0385141
2.67048e-18
3.0946e-17
-1.17283e-17
5.69626e-17
0.0385141
-2.77512e-18
-4.8888e-17
0.0385141
-1.46644e-18
-4.48915e-17
0.0385141
-4.10183e-18
-6.434e-19
0.0385141
-8.30662e-20
-1.79938e-19
0.0385141
1.93112e-18
-9.28254e-19
0.0385141
2.14961e-18
1.51765e-18
0.0385141
3.46334e-18
-2.59098e-19
0.0385141
5.82959e-19
-2.97235e-19
0.0385141
-2.80676e-18
3.30189e-19
0.0385141
2.05386e-19
1.92396e-18
0.0385141
2.80368e-18
8.05196e-19
0.0385141
-4.57637e-19
1.26543e-18
0.0385141
3.93427e-18
-4.88466e-18
0.0385141
6.88533e-19
-2.83307e-19
0.0385141
4.15391e-20
3.12498e-18
0.0385141
-2.63223e-18
-8.79324e-18
0.0385141
-7.94237e-19
-4.77747e-18
0.0385141
2.92197e-18
5.33137e-18
0.0385141
6.82141e-18
-7.79401e-18
0.0385141
-2.35003e-18
-7.92125e-18
0.0385141
6.49594e-18
-9.88591e-18
0.0385141
1.99678e-18
-6.29885e-18
0.0385141
-5.64579e-18
-6.21157e-18
0.0385141
-7.54708e-20
2.23231e-17
0.0385141
-5.20139e-18
2.44834e-17
0.0385141
3.94841e-18
5.16695e-18
0.0385141
3.74863e-18
-1.61523e-17
0.0385141
4.75287e-18
1.45036e-18
0.0385141
1.66413e-18
-2.69781e-17
0.0385141
-2.47349e-17
-1.68105e-17
0.0385141
5.57262e-18
1.06593e-16
1.92417e-17
6.53922e-17
0.0385141
-2.39044e-17
-7.43297e-18
0.0385141
2.95607e-18
-6.23743e-17
0.0385141
-6.52713e-18
-8.67851e-19
0.0385141
3.44416e-19
1.05189e-18
0.0385141
1.85301e-18
2.00505e-18
0.0385141
1.44768e-18
1.06273e-18
0.0385141
2.97436e-18
-2.06204e-18
0.0385141
7.85443e-19
3.9405e-19
0.0385141
-2.49748e-18
2.44254e-18
0.0385141
1.00961e-18
5.28296e-19
0.0385141
2.26423e-18
-3.95018e-18
0.0385141
8.96022e-19
-9.41914e-19
0.0385141
1.45658e-18
-2.54073e-18
0.0385141
-1.8602e-19
3.39102e-18
0.0385141
2.51584e-19
3.3149e-18
0.0385141
4.57835e-18
-1.41189e-17
0.0385141
7.52385e-19
-1.0432e-18
0.0385141
-2.83289e-18
7.30817e-18
0.0385141
9.45405e-18
-9.5348e-18
0.0385141
5.63131e-18
-1.58912e-17
0.0385141
6.66456e-19
6.95042e-18
0.0385141
-6.80175e-18
2.08143e-17
0.0385141
-3.00085e-18
-1.09993e-17
0.0385141
-5.45995e-19
-4.97269e-18
0.0385141
-1.88137e-18
1.82876e-17
0.0385141
4.94743e-18
1.37378e-17
0.0385141
1.17918e-19
-1.01339e-17
0.0385141
7.61504e-18
-2.41174e-17
0.0385141
-2.82531e-17
-1.62848e-17
0.0385141
-1.51391e-17
2.45567e-17
0.0385141
4.28156e-17
2.98591e-17
1.72639e-17
7.25106e-17
0.0385141
-1.23925e-17
-2.35421e-17
0.0385141
-1.07116e-17
-4.36456e-17
0.0385141
-2.66154e-18
-1.04847e-18
0.0385141
-2.22831e-18
-2.19249e-18
0.0385141
1.59249e-18
1.60468e-18
0.0385141
1.86789e-18
-2.92093e-19
0.0385141
9.24118e-19
-3.58759e-19
0.0385141
8.82386e-19
1.39076e-19
0.0385141
-5.78435e-19
9.93963e-19
0.0385141
1.30303e-18
7.75689e-19
0.0385141
6.01766e-19
-2.37947e-18
0.0385141
8.89571e-19
1.96248e-18
0.0385141
-1.07976e-18
-6.02965e-18
0.0385141
3.88929e-19
1.10819e-19
0.0385141
3.51244e-18
4.21031e-18
0.0385141
4.41046e-18
-1.68313e-18
0.0385141
1.01061e-18
-4.90431e-18
0.0385141
-3.83134e-18
1.99199e-18
0.0385141
1.33825e-17
-1.86796e-17
0.0385141
1.16954e-17
3.17416e-18
0.0385141
-3.80207e-18
-4.4512e-18
0.0385141
5.5739e-18
-3.30377e-17
0.0385141
-3.25685e-18
3.48249e-18
0.0385141
-2.04466e-18
1.10128e-17
0.0385141
1.05031e-17
2.21125e-17
0.0385141
1.64536e-17
-5.80524e-18
0.0385141
-8.30049e-18
-6.34678e-18
0.0385141
-1.8925e-17
3.04565e-17
0.0385141
-3.44809e-17
-3.41477e-17
0.0385141
9.87307e-18
-1.4686e-17
0.0385141
3.45804e-17
6.8184e-17
-4.67855e-19
6.56843e-17
0.0385141
5.20425e-18
-2.24102e-17
0.0385141
-1.66807e-17
-5.5433e-17
0.0385141
-1.61202e-18
-2.87866e-18
0.0385141
-3.16202e-18
-4.03561e-20
0.0385141
1.31383e-18
3.17976e-18
0.0385141
1.75422e-18
1.53427e-18
0.0385141
1.32446e-18
-1.913e-18
0.0385141
1.17644e-18
1.29601e-18
0.0385141
4.83695e-19
3.62338e-18
0.0385141
1.1914e-18
-1.25268e-18
0.0385141
-2.204e-22
-4.73471e-19
0.0385141
3.71142e-18
-2.50377e-18
0.0385141
-2.24916e-18
1.69084e-18
0.0385141
1.17434e-18
-1.53142e-18
0.0385141
3.20708e-18
1.3571e-18
0.0385141
3.59582e-18
-2.84332e-18
0.0385141
-4.73746e-19
8.12367e-19
0.0385141
-3.33009e-18
-6.44027e-19
0.0385141
1.7248e-17
-6.58249e-18
0.0385141
1.06073e-17
-1.44452e-17
0.0385141
-8.50842e-18
-6.58801e-18
0.0385141
6.94114e-18
4.61169e-18
0.0385141
-2.83849e-18
-2.06519e-18
0.0385141
-1.26694e-18
1.29715e-17
0.0385141
1.94167e-17
1.68106e-17
0.0385141
1.86289e-17
7.09945e-18
0.0385141
-1.55524e-17
7.49103e-19
0.0385141
-2.13225e-17
-1.15046e-17
0.0385141
5.7618e-19
1.82783e-18
0.0385141
9.46225e-18
-2.95025e-18
0.0385141
-1.03489e-17
1.74065e-17
-1.56339e-18
7.65085e-17
0.0385141
5.20493e-18
-3.0945e-17
0.0385141
-2.61239e-18
-3.95865e-17
0.0385141
2.32505e-21
-5.67858e-18
0.0385141
-2.89485e-18
-3.67195e-18
0.0385141
1.28023e-19
3.55273e-18
0.0385141
2.24517e-18
-8.70722e-19
0.0385141
7.35749e-19
-9.45859e-19
0.0385141
8.82658e-19
1.32086e-18
0.0385141
8.00773e-19
1.27585e-18
0.0385141
1.21185e-18
-1.26427e-18
0.0385141
9.28041e-19
-2.2785e-18
0.0385141
3.00706e-18
-1.04866e-18
0.0385141
2.48624e-18
-9.4795e-18
0.0385141
6.89394e-19
-4.41573e-19
0.0385141
-1.70525e-18
1.16217e-17
0.0385141
3.1082e-18
4.37393e-19
0.0385141
5.85287e-18
-1.34941e-17
0.0385141
-3.22098e-18
2.49117e-19
0.0385141
2.02523e-17
-1.33095e-17
0.0385141
1.54827e-17
3.27548e-18
0.0385141
-1.52693e-17
-3.63914e-18
0.0385141
4.22667e-18
-5.36892e-18
0.0385141
-8.90758e-18
1.70868e-17
0.0385141
-1.09561e-18
3.86404e-18
0.0385141
2.55394e-17
3.82291e-18
0.0385141
3.97472e-18
-1.4909e-17
0.0385141
-2.85246e-17
8.51514e-19
0.0385141
4.15191e-19
1.01469e-17
0.0385141
-2.24487e-18
-1.39702e-17
0.0385141
-8.45328e-18
-1.03416e-17
0.0385141
-1.8373e-17
4.87043e-17
6.67504e-18
7.15218e-17
0.0385141
7.99969e-18
-2.93038e-17
0.0385141
2.86966e-18
-3.53527e-17
0.0385141
3.70968e-18
-8.35259e-18
0.0385141
-3.56704e-18
-1.27834e-19
0.0385141
2.86575e-19
3.49285e-18
0.0385141
2.784e-18
1.37274e-18
0.0385141
7.13153e-19
-2.5011e-18
0.0385141
9.57845e-19
8.89419e-19
0.0385141
8.39904e-20
4.32431e-18
0.0385141
8.45094e-19
-5.32926e-18
0.0385141
-9.15041e-19
5.68585e-18
0.0385141
3.76376e-18
7.87867e-19
0.0385141
-5.702e-19
-1.90133e-18
0.0385141
7.809e-19
-1.67675e-18
0.0385141
1.01547e-18
-2.89564e-19
0.0385141
2.23824e-18
-2.9458e-18
0.0385141
4.80683e-18
1.34157e-18
0.0385141
-4.09049e-18
-7.00171e-19
0.0385141
5.35502e-18
-1.96447e-17
0.0385141
1.2676e-17
-7.89499e-18
0.0385141
5.95504e-18
9.28543e-18
0.0385141
-1.26177e-18
-1.02372e-17
0.0385141
-7.71604e-18
-2.10091e-18
0.0385141
-1.85083e-18
7.0095e-18
0.0385141
7.1457e-18
8.1436e-18
0.0385141
1.24971e-17
8.09291e-18
0.0385141
-1.05036e-17
1.39608e-17
0.0385141
-7.0286e-19
-8.8797e-18
0.0385141
-1.23728e-18
-2.35348e-18
0.0385141
-8.08123e-18
-3.76452e-18
0.0385141
-2.40338e-17
2.6547e-17
-2.78265e-18
6.18853e-17
0.0385141
3.71748e-17
-2.40306e-17
0.0385141
3.41609e-18
-3.6035e-17
0.0385141
5.1977e-18
-1.22597e-17
0.0385141
-5.13639e-18
-3.58166e-18
0.0385141
-8.22397e-19
3.11861e-18
0.0385141
2.2922e-18
2.48746e-18
0.0385141
6.08729e-19
-3.74624e-18
0.0385141
9.93405e-19
1.86112e-18
0.0385141
5.30541e-20
1.8827e-18
0.0385141
8.65549e-19
-1.78628e-18
0.0385141
-4.82651e-19
-4.15629e-19
0.0385141
5.16623e-18
8.25665e-19
0.0385141
-1.26551e-18
-4.31334e-18
0.0385141
8.21669e-19
-8.25801e-20
0.0385141
4.11814e-18
4.08779e-18
0.0385141
1.02319e-19
1.66282e-18
0.0385141
3.38608e-18
-3.25751e-18
0.0385141
-5.98632e-19
1.43226e-18
0.0385141
-1.65355e-17
-1.801e-17
0.0385141
1.0331e-18
-1.65548e-17
0.0385141
1.30383e-17
-1.58326e-17
0.0385141
-1.88481e-18
1.4724e-17
0.0385141
1.8612e-17
2.6775e-17
0.0385141
-2.07269e-18
4.51098e-18
0.0385141
-1.24879e-17
-7.32568e-18
0.0385141
-1.12118e-17
-1.99134e-17
0.0385141
1.2723e-17
1.04124e-17
0.0385141
4.26271e-18
-1.23295e-18
0.0385141
-2.1733e-17
-1.20756e-17
0.0385141
-7.43761e-18
8.08377e-18
0.0385141
-2.65343e-17
3.67661e-17
6.12794e-18
5.38863e-17
0.0385141
5.23818e-17
-3.07002e-17
0.0385141
4.65526e-18
-3.20646e-17
0.0385141
5.04687e-18
-7.38926e-18
0.0385141
-4.93573e-18
-2.84422e-18
0.0385141
-1.28803e-18
-1.38225e-19
0.0385141
2.79246e-18
2.28681e-18
0.0385141
-2.85054e-20
-1.06907e-18
0.0385141
1.15102e-18
-4.88516e-19
0.0385141
1.38931e-19
-3.5383e-18
0.0385141
6.97158e-19
-5.4442e-18
0.0385141
9.88575e-19
1.78934e-17
0.0385141
1.82136e-18
-1.24159e-18
0.0385141
-2.68739e-18
-4.56025e-18
0.0385141
7.88166e-19
-2.10771e-18
0.0385141
3.35003e-18
1.66248e-18
0.0385141
5.77185e-20
-1.01449e-17
0.0385141
7.99384e-19
-1.3419e-17
0.0385141
3.55188e-18
9.39936e-18
0.0385141
1.1048e-18
2.81673e-18
0.0385141
2.07114e-19
-1.42494e-17
0.0385141
-5.91488e-18
-1.01662e-17
0.0385141
3.70695e-18
2.58245e-18
0.0385141
1.57143e-17
-2.82291e-18
0.0385141
-2.0392e-18
1.45318e-17
0.0385141
4.37277e-18
8.43192e-18
0.0385141
-1.35667e-17
9.28096e-19
0.0385141
-6.48219e-19
8.2344e-18
0.0385141
4.26489e-18
-2.226e-18
0.0385141
-2.10192e-17
-8.17047e-19
0.0385141
-5.89593e-18
2.88646e-19
0.0385141
-3.43564e-17
2.58892e-17
-9.70505e-19
4.29113e-17
0.0385141
-4.08758e-17
-5.14786e-17
0.0385141
1.2115e-17
-3.7255e-17
0.0385141
7.29455e-18
-1.59579e-17
0.0385141
7.62529e-19
-1.45103e-17
0.0385141
-9.6475e-19
1.52728e-18
0.0385141
-1.27804e-18
7.28637e-18
0.0385141
-1.31928e-18
-1.05443e-18
0.0385141
2.31427e-18
3.27223e-19
0.0385141
-2.63887e-19
4.19247e-18
0.0385141
-1.34757e-19
6.74936e-19
0.0385141
-2.68465e-19
1.62942e-18
0.0385141
3.38374e-18
2.08877e-19
0.0385141
2.30511e-18
-9.6653e-18
0.0385141
6.28791e-19
-1.16627e-18
0.0385141
-2.60429e-18
1.10974e-17
0.0385141
7.68846e-19
-1.42824e-19
0.0385141
-2.65628e-18
-6.16059e-19
0.0385141
-8.97682e-20
3.35838e-19
0.0385141
1.10021e-17
-7.1423e-18
0.0385141
6.01412e-18
-1.613e-17
0.0385141
-8.33428e-18
-1.99808e-17
0.0385141
3.36581e-18
1.46483e-17
0.0385141
4.80774e-18
1.33659e-17
0.0385141
-1.29277e-18
7.84795e-18
0.0385141
1.10703e-17
7.2709e-19
0.0385141
-2.90185e-18
-9.16027e-18
0.0385141
-5.84997e-18
3.23741e-18
0.0385141
6.2976e-18
6.96423e-21
0.0385141
1.37597e-17
4.86052e-18
0.0385141
4.58505e-18
5.64484e-18
0.0385141
2.24546e-17
5.0274e-17
-2.16395e-17
4.39094e-17
0.0385141
-3.1569e-17
-2.89014e-17
0.0385141
1.26664e-17
-3.19542e-17
0.0385141
1.21613e-17
-8.71935e-18
0.0385141
-1.48763e-20
-6.88833e-18
0.0385141
-3.00914e-18
-9.81299e-18
0.0385141
-7.85667e-19
3.11494e-18
0.0385141
-1.86178e-18
1.04215e-17
0.0385141
3.05777e-18
-4.50661e-18
0.0385141
-1.0833e-19
5.2702e-18
0.0385141
-1.27379e-18
-3.14835e-18
0.0385141