/*--------------------------------*- C++ -*----------------------------------*\
| =========                 |                                                 |
| \\      /  F ield         | OpenFOAM: The Open Source CFD Toolbox           |
|  \\    /   O peration     | Version:  2512                                  |
|   \\  /    A nd           | Website:  www.openfoam.com                      |
|    \\/     M anipulation  |                                                 |
\*---------------------------------------------------------------------------*/
FoamFile
{
    version     2.0;
    format      ascii;
    arch        "LSB;label=32;scalar=64";
    class       volVectorField;
    location    "0.1";
    object      U;
}
// * * * * * * * * * * * * * * * * * * * * * * * * * * * * * * * * * * * * * //

dimensions      [0 1 -1 0 0 0 0];

internalField   nonuniform List<vector> 
32768
(
(1 3.80702e-17 -3.08669e-16)
(1 -1.04561e-15 -9.15366e-16)
(1 7.21956e-16 1.27371e-16)
(1 6.23167e-16 7.99494e-16)
(1 2.77826e-16 2.55308e-16)
(1 4.38039e-16 3.28261e-16)
(1 -1.75402e-16 1.1501e-16)
(1 5.73594e-16 5.98419e-16)
(1 -1.34372e-17 -9.60275e-17)
(1 8.66406e-17 -1.2125e-16)
(1 1.65847e-16 -1.76623e-17)
(1 1.95756e-17 -5.85915e-17)
(1 9.64517e-17 3.13865e-17)
(1 8.70432e-17 -4.85526e-17)
(1 2.29217e-16 -1.44014e-16)
(1 5.36833e-18 -1.97994e-16)
(1 9.00658e-16 -3.69916e-16)
(1 5.63374e-16 5.41365e-17)
(1 -1.64794e-15 2.88394e-16)
(1 -6.04409e-16 4.12569e-16)
(1 -4.26904e-17 3.49523e-18)
(1 3.16381e-17 2.29757e-16)
(1 1.33728e-16 -7.36437e-17)
(1 5.13255e-17 -4.2549e-16)
(1 -6.08307e-17 6.84834e-17)
(1 9.46669e-16 -1.29857e-16)
(1 -1.27962e-17 9.16924e-18)
(1 2.75407e-16 -5.8026e-16)
(1 -1.16176e-16 -2.70213e-17)
(1 -7.18227e-16 -2.83526e-16)
(1 -8.14719e-16 -1.68947e-16)
(1 -1.35892e-15 4.62902e-17)
(1 -2.14578e-15 -1.56262e-15)
(1 -2.00947e-16 -1.43536e-15)
(1 -4.94758e-16 -2.27205e-16)
(1 1.41657e-16 1.17916e-15)
(1 -1.35007e-15 -1.20743e-16)
(1 -1.10288e-15 3.64885e-17)
(1 2.32852e-17 -1.10313e-16)
(1 -4.50063e-16 2.09091e-16)
(1 1.51692e-16 1.46244e-17)
(1 6.33669e-16 1.08411e-17)
(1 6.12529e-17 1.43387e-16)
(1 7.97613e-17 8.01161e-17)
(1 3.61673e-17 3.92605e-16)
(1 7.71965e-17 2.04659e-17)
(1 2.69706e-16 -3.42844e-16)
(1 6.11488e-17 -4.97104e-17)
(1 9.73287e-16 -6.04317e-16)
(1 -7.82435e-17 -5.97628e-16)
(1 -9.76643e-16 -4.82494e-16)
(1 -6.64233e-17 -1.2235e-16)
(1 -4.73536e-16 -2.29702e-16)
(1 -3.11169e-16 -2.56431e-16)
(1 -6.62098e-17 -7.64618e-17)
(1 1.45577e-16 7.28634e-16)
(1 -8.68226e-17 6.31007e-16)
(1 1.24219e-16 8.21993e-17)
(1 5.51214e-16 1.03096e-16)
(1 -1.80388e-18 -7.31092e-16)
(1 -9.47443e-16 4.82529e-16)
(1 -7.19245e-16 -1.56771e-17)
(1 6.95121e-16 1.73423e-15)
(1 6.81551e-16 5.89474e-16)
(1 -7.63211e-16 -8.76103e-16)
(1 4.2047e-16 -2.56822e-16)
(1 -6.98407e-16 -2.33145e-17)
(1 -3.71216e-16 -1.43155e-16)
(1 -3.39185e-16 1.73749e-17)
(1 -3.52344e-16 2.57798e-16)
(1 -1.1769e-16 1.36132e-16)
(1 -7.01406e-16 -2.15701e-17)
(1 7.03846e-19 -9.42065e-17)
(1 -8.62201e-17 -7.00692e-17)
(1 2.58247e-16 -9.445e-17)
(1 -1.63971e-17 3.09439e-17)
(1 6.04587e-17 -8.26514e-17)
(1 7.32501e-17 -8.73838e-17)
(1 4.98183e-17 -9.95908e-17)
(1 -1.85674e-17 -1.39112e-16)
(1 3.77335e-16 -2.18533e-16)
(1 1.63264e-16 1.44875e-16)
(1 -8.48212e-16 1.40951e-16)
(1 -3.6159e-16 7.8681e-17)
(1 -8.01665e-17 -2.96625e-16)
(1 1.75143e-16 -7.27898e-17)
(1 -1.08221e-16 -1.42358e-16)
(1 -1.66728e-17 -1.27325e-17)
(1 2.82065e-17 5.17198e-16)
(1 -3.64377e-16 -3.82287e-16)
(1 -3.26117e-16 -3.81603e-16)
(1 5.3395e-16 -5.9693e-16)
(1 1.05177e-15 1.20088e-16)
(1 -4.37072e-16 1.86737e-16)
(1 2.63497e-16 8.83528e-16)
(1 5.21749e-16 6.75741e-16)
(1 2.89388e-16 -1.50007e-15)
(1 -4.60759e-16 -3.25347e-16)
(1 -9.30409e-16 -1.49903e-17)
(1 3.55953e-16 -4.73998e-16)
(1 -4.56864e-16 -2.58779e-16)
(1 -2.82264e-16 8.51457e-16)
(1 2.22555e-16 -6.95218e-16)
(1 -5.00658e-16 8.1196e-17)
(1 7.37122e-16 -1.20078e-16)
(1 -5.00207e-16 2.4368e-17)
(1 2.47136e-16 5.36863e-16)
(1 -1.7102e-16 1.77031e-16)
(1 2.84766e-17 3.72998e-17)
(1 -2.10528e-17 -5.18963e-17)
(1 -8.14559e-18 -8.8443e-17)
(1 4.98156e-17 9.52169e-18)
(1 3.08476e-16 -3.20752e-16)
(1 -1.52537e-16 -1.65019e-17)
(1 2.40918e-16 -1.91227e-16)
(1 -2.62594e-17 -1.58307e-17)
(1 -8.03774e-16 -1.98855e-16)
(1 8.30551e-17 -8.86014e-16)
(1 -1.41221e-16 -6.7903e-16)
(1 3.83285e-17 4.97914e-16)
(1 9.26003e-19 2.9461e-16)
(1 -2.58904e-16 2.59723e-16)
(1 2.15226e-16 3.24237e-16)
(1 -5.94905e-17 -5.42073e-16)
(1 -4.18923e-16 -1.72886e-16)
(1 8.88752e-16 3.66283e-16)
(1 -5.44654e-16 2.21791e-15)
(1 6.65787e-17 2.52765e-16)
(1 3.42399e-16 -8.70679e-16)
(1 -1.15023e-15 -4.12878e-16)
(1 -4.62294e-16 1.69899e-17)
(1 2.18292e-16 -5.83105e-16)
(1 7.53583e-17 -1.14569e-16)
(1 -2.86666e-16 7.53684e-17)
(1 7.61703e-18 6.36215e-17)
(1 -2.59093e-16 -6.44564e-17)
(1 -5.87851e-16 2.54898e-16)
(1 3.97879e-17 -1.83134e-16)
(1 5.07448e-16 -1.72884e-16)
(1 -7.37203e-17 -4.26374e-17)
(1 8.09731e-17 -1.34697e-17)
(1 8.10972e-18 -8.59576e-17)
(1 7.48586e-19 -8.16331e-17)
(1 -1.96056e-17 -1.83981e-17)
(1 1.39621e-16 -1.36135e-16)
(1 -4.3234e-17 7.00367e-17)
(1 -4.2632e-16 3.96186e-17)
(1 -1.94381e-16 9.79746e-17)
(1 1.74242e-16 3.41668e-16)
(1 3.5733e-16 -6.15924e-18)
(1 -5.65731e-16 -5.55241e-16)
(1 -4.36412e-16 2.74872e-16)
(1 1.92345e-16 1.13898e-16)
(1 -6.89374e-16 -3.70541e-16)
(1 -3.10752e-16 -4.74796e-17)
(1 -7.5589e-16 5.65307e-16)
(1 1.30054e-16 -3.29277e-18)
(1 1.41403e-15 2.04398e-18)
(1 1.22092e-16 5.61889e-16)
(1 1.39566e-15 4.8914e-16)
(1 -9.2911e-16 -1.29441e-15)
(1 -1.93918e-16 -3.90117e-16)
(1 -4.06237e-16 3.98388e-17)
(1 -5.77603e-16 -9.91319e-17)
(1 -2.16095e-16 -1.11036e-16)
(1 -3.61656e-16 3.38475e-16)
(1 -2.84247e-16 -7.50121e-17)
(1 -1.28869e-16 9.20075e-17)
(1 -7.00582e-16 -5.89556e-17)
(1 3.51324e-17 -2.06471e-17)
(1 -6.8463e-17 -8.59818e-17)
(1 -1.98597e-16 -8.66907e-18)
(1 6.54874e-17 8.19025e-17)
(1 -2.53286e-17 -8.26258e-17)
(1 -5.50039e-17 -2.43713e-17)
(1 -1.01578e-17 1.32195e-17)
(1 2.23361e-17 -2.07265e-16)
(1 -7.2863e-17 3.39413e-17)
(1 -5.14994e-16 -1.98448e-16)
(1 -1.05452e-16 8.78567e-17)
(1 3.5844e-16 -8.7883e-17)
(1 1.11839e-16 -5.54757e-16)
(1 -4.73304e-17 -8.69912e-16)
(1 -4.4721e-17 -4.49876e-16)
(1 -3.65283e-17 8.9778e-16)
(1 -2.8331e-16 4.89936e-16)
(1 4.51087e-17 5.09483e-17)
(1 -7.67026e-17 3.39913e-16)
(1 1.72139e-15 7.0417e-17)
(1 6.25953e-16 2.61543e-17)
(1 5.71782e-16 1.46427e-15)
(1 5.84031e-16 3.29633e-16)
(1 6.27552e-16 -1.62937e-15)
(1 -3.40962e-16 -1.87581e-16)
(1 -7.54938e-17 -4.31762e-17)
(1 6.2416e-17 -1.50733e-16)
(1 -1.6722e-17 -1.03643e-16)
(1 -2.31344e-17 1.7178e-17)
(1 8.77652e-17 2.32309e-16)
(1 -1.53672e-16 -2.04612e-17)
(1 4.33193e-16 2.15223e-16)
(1 -5.9615e-17 -1.34797e-16)
(1 -6.0609e-16 -2.38448e-16)
(1 1.49719e-17 -5.45496e-17)
(1 -1.13585e-16 4.92462e-17)
(1 2.04245e-17 -8.4325e-17)
(1 5.99044e-17 -1.14554e-16)
(1 -7.62003e-18 1.7997e-17)
(1 1.02098e-17 -1.4047e-16)
(1 -4.34682e-17 6.84512e-17)
(1 -1.3786e-16 -1.37241e-16)
(1 -1.74688e-16 -1.45811e-17)
(1 -1.06206e-15 2.04436e-16)
(1 -1.06085e-15 -1.66185e-16)
(1 5.4847e-16 -9.86483e-16)
(1 9.88633e-16 -3.52741e-16)
(1 3.48603e-16 9.74588e-16)
(1 -3.50601e-16 5.88881e-16)
(1 -2.47487e-16 -8.12271e-17)
(1 -2.23195e-16 2.10726e-16)
(1 -1.57773e-16 5.36511e-17)
(1 6.02024e-16 -4.80881e-17)
(1 -3.30002e-16 1.5307e-15)
(1 5.91372e-16 2.1135e-16)
(1 1.68497e-16 -1.44662e-15)
(1 -6.65004e-17 -3.7528e-16)
(1 -1.45748e-16 6.56573e-17)
(1 -1.2773e-16 -2.23518e-17)
(1 -1.68352e-16 -7.61776e-19)
(1 -3.54189e-16 5.95238e-17)
(1 -7.67994e-17 1.7438e-16)
(1 -5.89339e-17 8.59883e-18)
(1 -2.29172e-16 2.03922e-16)
(1 -6.69535e-17 -5.7986e-17)
(1 1.76361e-17 -2.46325e-16)
(1 -6.98806e-17 -3.90862e-18)
(1 -1.36553e-16 1.53882e-17)
(1 -3.82222e-17 -1.02457e-16)
(1 5.68927e-17 -5.20474e-17)
(1 -3.49624e-17 5.26962e-18)
(1 -7.86721e-17 -1.64217e-16)
(1 5.84987e-17 -1.09588e-16)
(1 -2.5869e-16 -1.80481e-16)
(1 -1.79894e-16 1.03408e-16)
(1 1.45171e-16 -1.05925e-17)
(1 1.36726e-16 -4.13297e-16)
(1 1.01986e-16 -8.64988e-16)
(1 4.12123e-17 -7.71941e-16)
(1 -2.00362e-16 1.18745e-15)
(1 -3.71816e-16 -6.74936e-16)
(1 2.75662e-17 -3.47942e-16)
(1 3.10039e-16 1.59209e-15)
(1 4.66978e-16 3.59034e-16)
(1 4.62522e-17 -8.26855e-17)
(1 7.87815e-17 1.6218e-15)
(1 3.80168e-16 5.09805e-16)
(1 1.68241e-15 -1.11298e-15)
(1 4.40455e-16 -3.27318e-16)
(1 2.42865e-16 7.51178e-17)
(1 8.68221e-17 7.53862e-17)
(1 8.4976e-17 -1.40661e-16)
(1 6.98927e-17 -3.39222e-17)
(1 2.00867e-16 1.66396e-16)
(1 -1.11777e-16 -8.49383e-17)
(1 2.75997e-17 7.88596e-17)
(1 -2.7087e-17 1.59858e-17)
(1 -3.68293e-16 -7.20911e-17)
(1 -5.10204e-18 -7.88706e-17)
(1 -8.24835e-17 -7.36907e-18)
(1 -3.91104e-17 -8.00538e-17)
(1 6.60489e-17 -1.17674e-16)
(1 -9.95232e-18 -1.1785e-16)
(1 -6.79428e-17 -2.57651e-16)
(1 -4.568e-17 2.83886e-16)
(1 6.42157e-17 -8.93408e-17)
(1 -4.44257e-16 -5.09616e-16)
(1 -8.08042e-16 2.79938e-17)
(1 -5.16038e-16 1.6607e-16)
(1 1.02177e-16 -1.0991e-15)
(1 5.63184e-16 -2.30479e-16)
(1 6.95813e-16 1.37497e-15)
(1 -2.6321e-16 7.9751e-16)
(1 1.17747e-16 -1.4569e-16)
(1 4.29326e-17 -1.50321e-16)
(1 1.83476e-18 -6.05651e-17)
(1 2.83146e-17 -4.38555e-17)
(1 -1.82072e-15 1.23933e-15)
(1 -1.50698e-16 4.83457e-16)
(1 2.96935e-16 -5.05503e-16)
(1 1.39255e-16 -1.25519e-15)
(1 -4.99431e-17 2.76589e-17)
(1 4.27967e-17 3.06837e-17)
(1 -2.91383e-17 3.98615e-17)
(1 -9.20905e-18 -1.89932e-17)
(1 -1.77451e-16 3.383e-16)
(1 -1.26334e-18 -6.04914e-17)
(1 1.44804e-17 -5.6814e-18)
(1 -2.06606e-16 -2.765e-17)
(1 -1.51635e-16 -2.8425e-17)
(1 2.04445e-17 -7.19093e-18)
(1 -1.0173e-16 -2.49406e-17)
(1 -2.98259e-18 -1.60247e-16)
(1 4.21007e-17 -6.64564e-17)
(1 -4.14656e-17 -1.01434e-16)
(1 -1.1142e-16 -2.93047e-16)
(1 3.29581e-17 -6.46897e-16)
(1 -9.33969e-17 -1.98364e-16)
(1 -3.11112e-16 4.79935e-16)
(1 1.29004e-16 2.51737e-16)
(1 1.89969e-16 -7.29709e-16)
(1 2.16412e-16 -6.93429e-16)
(1 -1.255e-16 9.14448e-17)
(1 -9.60083e-17 9.64113e-16)
(1 -2.96129e-16 4.98908e-16)
(1 3.61874e-17 -6.62204e-16)
(1 4.91291e-16 3.45788e-17)
(1 -2.53971e-16 2.37998e-16)
(1 -5.55005e-16 -3.28113e-16)
(1 1.65319e-16 1.27709e-15)
(1 4.34384e-16 1.91338e-15)
(1 -1.18075e-15 -1.46638e-15)
(1 3.62946e-16 -6.25836e-16)
(1 -1.21032e-16 5.18193e-17)
(1 1.15014e-16 -4.02812e-17)
(1 5.27885e-17 -5.01511e-17)
(1 1.09549e-16 7.73943e-17)
(1 -5.18333e-16 2.57737e-16)
(1 -2.6783e-18 -1.69726e-16)
(1 4.99942e-16 -9.34349e-17)
(1 -1.00716e-16 -9.84897e-17)
(1 1.85869e-17 1.24423e-16)
(1 -6.05295e-17 1.90202e-17)
(1 -1.11001e-16 -2.33306e-17)
(1 -4.73408e-17 -2.24842e-17)
(1 1.21743e-16 -9.77053e-17)
(1 -4.25402e-17 -8.04967e-16)
(1 -6.80769e-17 -8.47514e-17)
(1 2.23562e-16 6.73151e-16)
(1 1.04977e-15 -2.0356e-16)
(1 1.1568e-15 -7.79103e-16)
(1 -6.49038e-16 2.45715e-17)
(1 -1.23794e-15 3.23424e-16)
(1 2.78107e-16 -1.04718e-15)
(1 -4.59521e-16 8.02988e-16)
(1 -6.8641e-16 1.40751e-15)
(1 -3.18099e-16 2.99116e-16)
(1 1.33865e-16 -3.18141e-16)
(1 4.32179e-16 -7.83125e-16)
(1 4.79505e-16 -5.25872e-16)
(1 -2.88083e-16 -2.66863e-16)
(1 6.1402e-16 2.24255e-15)
(1 2.78338e-16 1.50941e-15)
(1 1.67785e-15 -2.21444e-15)
(1 -1.67791e-16 -5.50869e-16)
(1 1.24967e-16 1.40183e-16)
(1 6.27696e-17 6.06557e-17)
(1 5.71391e-18 -7.08802e-17)
(1 6.81614e-17 -2.26199e-17)
(1 7.29046e-17 6.34311e-17)
(1 -1.1959e-17 -2.04533e-16)
(1 -7.5253e-17 8.91322e-17)
(1 -1.23522e-16 6.87949e-17)
(1 -1.50155e-16 1.26865e-17)
(1 2.19713e-17 8.29292e-17)
(1 -1.35651e-16 -3.70467e-17)
(1 2.03504e-17 -3.34056e-17)
(1 4.50788e-17 -9.53983e-18)
(1 -3.27679e-17 -5.13378e-16)
(1 -9.06035e-17 -7.69752e-16)
(1 1.11152e-16 2.8099e-16)
(1 5.89279e-17 -3.58248e-17)
(1 -2.09487e-16 -6.66745e-16)
(1 5.42379e-17 4.50329e-16)
(1 2.72003e-16 -4.90689e-17)
(1 7.9295e-17 -3.00653e-16)
(1 -1.60405e-16 8.02866e-16)
(1 -3.49768e-17 6.50879e-16)
(1 -9.39519e-17 3.19356e-16)
(1 5.42832e-17 -7.55516e-16)
(1 7.21135e-16 -7.14813e-16)
(1 3.32904e-16 -2.86872e-16)
(1 -1.99437e-16 8.70532e-16)
(1 -1.85305e-15 3.66695e-15)
(1 -1.0043e-16 3.29606e-16)
(1 -2.7703e-16 -7.52077e-16)
(1 1.37876e-15 -1.53897e-15)
(1 2.74216e-16 -3.44177e-17)
(1 1.20338e-16 -1.13799e-17)
(1 7.2135e-17 -2.87965e-17)
(1 1.13659e-16 -4.71979e-18)
(1 -5.94713e-16 2.28711e-17)
(1 1.0038e-16 -1.08949e-16)
(1 6.07974e-16 -4.51583e-16)
(1 1.4885e-17 -1.54768e-17)
(1 -8.48649e-17 5.05555e-16)
(1 -8.91329e-17 1.1294e-16)
(1 -1.61837e-16 5.85024e-18)
(1 -2.64175e-17 1.39684e-18)
(1 2.00838e-16 -7.15929e-17)
(1 4.75937e-17 -9.45399e-16)
(1 2.5062e-16 -1.89709e-16)
(1 4.85355e-16 8.30683e-16)
(1 2.00791e-16 -7.96734e-16)
(1 -6.72691e-16 -8.66752e-16)
(1 -1.72234e-16 6.37487e-16)
(1 2.58817e-16 3.65201e-16)
(1 -6.48599e-17 -8.9771e-16)
(1 -3.90052e-16 9.47826e-16)
(1 -2.87931e-16 1.27705e-15)
(1 -3.09902e-16 3.00096e-16)
(1 1.41229e-16 -2.62396e-16)
(1 6.24413e-16 -5.98878e-16)
(1 -6.41644e-16 -1.05952e-16)
(1 -1.09783e-15 4.20789e-16)
(1 8.23909e-16 1.23397e-15)
(1 -4.27282e-16 1.59307e-15)
(1 -1.41283e-15 -1.06712e-15)
(1 1.34016e-16 -9.71415e-17)
(1 1.98631e-16 -3.11994e-16)
(1 7.04725e-17 1.55859e-17)
(1 2.44824e-17 -4.9093e-16)
(1 3.958e-17 -1.27068e-16)
(1 1.05474e-17 -6.30252e-16)
(1 -5.99235e-18 -1.15466e-16)
(1 -2.64896e-17 5.3876e-16)
(1 -7.43429e-17 2.09266e-16)
(1 -1.0709e-16 1.10568e-16)
(1 -1.93546e-17 7.14144e-17)
(1 -1.94997e-16 -5.55665e-17)
(1 9.53317e-18 1.94959e-17)
(1 3.1467e-16 -9.3658e-19)
(1 -1.01929e-16 -7.65814e-17)
(1 7.84777e-17 -3.46607e-16)
(1 1.16371e-16 -5.85591e-17)
(1 9.64797e-17 4.78917e-17)
(1 -1.46283e-17 -4.21443e-16)
(1 -3.85601e-17 1.39378e-16)
(1 -2.07771e-17 1.37989e-16)
(1 -4.25721e-17 -7.06748e-16)
(1 -1.04535e-16 5.19437e-16)
(1 -1.1846e-17 9.27578e-16)
(1 -2.29599e-16 1.31327e-16)
(1 -1.58552e-16 -4.48673e-16)
(1 -4.00573e-16 -1.05698e-15)
(1 2.02582e-16 -8.99494e-16)
(1 6.22505e-16 1.02575e-15)
(1 1.26115e-15 3.4045e-15)
(1 1.11691e-16 2.94208e-16)
(1 5.65051e-16 -1.17754e-15)
(1 6.02372e-16 -7.33454e-16)
(1 7.36559e-16 5.97575e-17)
(1 1.02745e-16 -2.4938e-17)
(1 5.80434e-17 1.58485e-17)
(1 -1.11875e-18 5.94262e-18)
(1 5.88567e-16 -2.57978e-17)
(1 6.14421e-17 -3.92855e-17)
(1 -5.47628e-16 -4.73732e-17)
(1 1.29433e-17 2.97528e-17)
(1 2.0367e-17 1.20813e-16)
(1 -1.17197e-16 5.60322e-17)
(1 -1.63778e-16 -1.57208e-17)
(1 -8.47562e-18 2.91296e-17)
(1 1.97551e-16 -7.23596e-17)
(1 -3.64941e-17 -8.01954e-16)
(1 -2.08602e-17 -5.86229e-17)
(1 -3.15263e-16 5.92517e-16)
(1 -7.69244e-16 -2.91344e-16)
(1 -4.60567e-16 -9.55169e-16)
(1 1.02679e-15 2.71161e-17)
(1 9.64491e-16 4.56242e-16)
(1 -3.06292e-16 -7.53363e-16)
(1 9.52277e-17 9.31537e-16)
(1 -1.34995e-16 1.37892e-15)
(1 1.73626e-16 2.06271e-16)
(1 1.5903e-16 -2.87821e-16)
(1 1.55994e-16 -9.27292e-16)
(1 -7.45967e-16 -6.19054e-16)
(1 -5.43426e-16 6.07351e-16)
(1 -4.85776e-16 2.111e-15)
(1 -2.26948e-16 9.72909e-16)
(1 -2.75356e-16 -2.01375e-15)
(1 1.27638e-16 -9.30042e-16)
(1 7.64724e-17 5.77695e-16)
(1 -3.83571e-17 -4.18175e-17)
(1 6.22746e-17 -1.44307e-16)
(1 4.9578e-17 -3.08897e-17)
(1 6.19512e-17 -1.98739e-16)
(1 -2.82e-18 -1.15063e-16)
(1 -2.01776e-17 8.85655e-17)
(1 3.93092e-17 1.30715e-16)
(1 7.27698e-20 1.44468e-16)
(1 -8.96966e-17 4.4594e-17)
(1 -2.12196e-16 -5.59373e-17)
(1 -4.06883e-18 6.19787e-17)
(1 2.54677e-16 3.49119e-17)
(1 -1.55899e-16 -1.84114e-16)
(1 6.43818e-17 -7.35682e-16)
(1 1.92068e-16 1.53861e-16)
(1 9.95722e-17 1.10682e-16)
(1 7.3323e-17 -7.80705e-16)
(1 -1.57165e-16 3.91436e-16)
(1 1.07272e-17 -2.91375e-17)
(1 -6.00694e-17 -4.37676e-16)
(1 -3.80385e-17 1.24848e-15)
(1 -4.17055e-17 5.64754e-16)
(1 -3.05925e-18 2.46567e-16)
(1 -1.66685e-16 -8.93749e-16)
(1 -2.30139e-16 -5.88764e-16)
(1 4.62849e-16 -3.87188e-16)
(1 -7.46855e-16 5.99378e-17)
(1 -1.56844e-16 3.06583e-15)
(1 9.23152e-16 1.28905e-15)
(1 -9.40671e-16 -4.27886e-16)
(1 2.41806e-16 -9.12455e-16)
(1 -8.5771e-16 9.10247e-17)
(1 -1.24344e-16 -2.01918e-17)
(1 2.08735e-17 2.10542e-17)
(1 -5.10423e-17 8.00768e-17)
(1 2.64301e-16 1.35136e-17)
(1 4.63045e-17 -1.39453e-16)
(1 -2.24778e-16 3.95676e-17)
(1 -3.90824e-17 5.22946e-17)
(1 5.26642e-17 3.53775e-17)
(1 -4.65015e-17 -1.22948e-17)
(1 9.23671e-17 -3.29305e-17)
(1 1.95181e-17 1.06332e-16)
(1 -6.57845e-17 -4.62747e-17)
(1 4.6207e-17 -2.81802e-16)
(1 -1.08614e-16 1.67758e-18)
(1 -4.44098e-17 2.17147e-16)
(1 -1.90602e-16 -3.48766e-16)
(1 -1.99446e-16 -8.8227e-16)
(1 3.29059e-16 -4.31554e-16)
(1 2.76744e-16 3.3829e-16)
(1 -6.58387e-17 -2.0267e-16)
(1 -1.24042e-16 6.72549e-16)
(1 -1.14432e-16 1.20485e-15)
(1 9.62256e-17 3.62012e-16)
(1 1.91463e-16 -2.05073e-16)
(1 2.17437e-16 -7.30318e-16)
(1 1.16489e-15 -3.24414e-16)
(1 6.11715e-16 6.33468e-16)
(1 3.29403e-16 9.93087e-16)
(1 -6.78439e-16 9.23716e-16)
(1 3.26057e-16 -2.49415e-15)
(1 2.6325e-16 -5.79256e-16)
(1 9.02141e-17 7.10709e-17)
(1 -8.61206e-18 -2.24139e-17)
(1 6.94379e-17 -1.06196e-16)
(1 1.09667e-16 6.68017e-17)
(1 1.83737e-17 -7.63201e-17)
(1 -5.96155e-18 -4.77637e-17)
(1 -2.55144e-17 5.2323e-17)
(1 3.68102e-17 6.99646e-17)
(1 9.58368e-17 8.37614e-17)
(1 -8.84088e-17 3.03755e-17)
(1 1.45727e-16 -8.97079e-17)
(1 1.39151e-18 1.0247e-17)
(1 -7.38329e-17 3.58313e-17)
(1 -1.61801e-16 -5.11499e-16)
(1 5.09601e-17 -1.84161e-16)
(1 1.79379e-16 3.2435e-16)
(1 2.57238e-16 -2.35016e-16)
(1 -6.92188e-17 -4.87898e-16)
(1 -8.6999e-17 -5.23584e-17)
(1 2.42014e-16 -2.63204e-17)
(1 -1.43152e-16 -2.84627e-16)
(1 -1.5469e-17 1.00573e-15)
(1 8.04061e-17 5.66326e-16)
(1 -8.73254e-17 2.98521e-16)
(1 2.13111e-17 -7.74168e-16)
(1 -6.04629e-18 -4.76572e-16)
(1 -2.81931e-16 -1.26921e-16)
(1 -5.17431e-16 -2.55643e-16)
(1 -1.18265e-16 3.7931e-15)
(1 6.57597e-17 1.00297e-15)
(1 -4.58267e-16 1.05367e-16)
(1 -2.68888e-16 -1.55744e-15)
(1 -3.06476e-16 1.05773e-16)
(1 -7.66105e-18 -2.01802e-17)
(1 3.54841e-17 7.13401e-17)
(1 1.25425e-17 -1.2042e-17)
(1 1.52753e-16 -6.58394e-18)
(1 3.08699e-17 -2.78253e-17)
(1 -1.30795e-16 6.62733e-17)
(1 -2.22376e-17 9.27392e-18)
(1 4.80135e-17 -5.18475e-17)
(1 5.53403e-17 -5.77516e-17)
(1 1.88824e-17 -2.46079e-17)
(1 1.47475e-17 1.41591e-16)
(1 5.05823e-17 -9.70444e-18)
(1 3.76388e-17 -1.42534e-16)
(1 -1.12359e-16 1.53008e-17)
(1 -3.32046e-17 8.20745e-17)
(1 1.1163e-16 -6.13808e-16)
(1 -4.98501e-17 -5.47065e-16)
(1 4.11861e-16 3.5744e-16)
(1 -1.68633e-16 3.91362e-16)
(1 -1.45123e-16 -5.20352e-16)
(1 3.98049e-19 -4.20557e-16)
(1 -3.63327e-16 8.95893e-16)
(1 2.90189e-16 7.65292e-16)
(1 1.83637e-16 -4.06233e-16)
(1 2.63533e-16 -1.24429e-15)
(1 3.42704e-16 -4.37506e-17)
(1 -7.42503e-16 1.10527e-15)
(1 3.26834e-16 5.54383e-16)
(1 8.82323e-16 1.74229e-15)
(1 -8.48494e-16 -1.17891e-15)
(1 3.53049e-16 -6.7895e-16)
(1 -2.42246e-17 -3.98216e-18)
(1 3.501e-17 -2.84563e-17)
(1 5.88781e-17 3.81823e-17)
(1 5.38413e-17 -4.15404e-18)
(1 4.35059e-18 -1.52862e-17)
(1 8.73346e-18 -2.06756e-17)
(1 -8.03425e-18 6.72357e-17)
(1 6.17232e-17 2.20495e-17)
(1 6.46399e-17 -5.32915e-17)
(1 -7.42295e-18 7.5459e-17)
(1 8.60839e-17 -1.59152e-16)
(1 -1.50476e-17 2.18433e-17)
(1 -3.41156e-17 5.04544e-17)
(1 1.86773e-16 -8.10684e-17)
(1 1.60099e-16 -2.95743e-17)
(1 -1.29243e-16 -1.29046e-17)
(1 3.55659e-16 -8.35984e-16)
(1 3.37605e-16 2.4868e-17)
(1 -3.72386e-16 -1.1748e-16)
(1 -1.57695e-16 -2.60859e-16)
(1 -2.10254e-17 2.91646e-16)
(1 -2.72733e-17 3.35053e-16)
(1 2.76631e-16 9.26026e-16)
(1 -5.438e-17 1.66307e-16)
(1 -1.93064e-16 -3.14415e-16)
(1 9.76163e-17 -3.88407e-16)
(1 -1.80259e-15 -4.13829e-16)
(1 -8.08441e-17 -7.31417e-16)
(1 1.96136e-15 2.08871e-15)
(1 7.30439e-17 1.63633e-15)
(1 3.30895e-16 -1.08748e-16)
(1 -8.56533e-16 -1.6456e-15)
(1 -1.16903e-16 1.49061e-17)
(1 -1.62172e-16 -1.65701e-17)
(1 2.49309e-17 9.44455e-17)
(1 5.34267e-17 1.18945e-17)
(1 4.58353e-17 -3.75946e-17)
(1 3.59243e-17 -5.6158e-18)
(1 -3.91017e-18 1.07411e-16)
(1 1.5916e-17 -3.86766e-17)
(1 -2.94773e-17 2.66013e-18)
(1 5.49824e-17 -5.76618e-18)
(1 -1.56368e-16 -8.52077e-18)
(1 3.15064e-17 -2.84888e-17)
(1 2.10275e-16 3.24654e-18)
(1 4.5483e-17 -6.07815e-17)
(1 -1.21829e-16 5.77414e-17)
(1 -6.17078e-17 1.61924e-17)
(1 3.58108e-16 -2.33822e-16)
(1 2.77999e-16 -7.20523e-16)
(1 1.74567e-16 -5.89264e-16)
(1 4.29203e-16 5.40323e-17)
(1 -1.37315e-16 -9.91949e-17)
(1 -6.90859e-17 5.82998e-16)
(1 2.63802e-16 1.0088e-15)
(1 9.45155e-16 4.07852e-16)
(1 -2.4155e-16 -6.34543e-17)
(1 -1.05778e-15 -5.68554e-16)
(1 1.34808e-17 -2.23248e-16)
(1 6.1383e-16 -1.85394e-16)
(1 -2.4042e-16 3.54933e-16)
(1 -1.42393e-16 2.48994e-15)
(1 -1.45231e-16 -5.46282e-16)
(1 -4.35509e-17 -1.05734e-15)
(1 1.59353e-17 -1.74162e-16)
(1 7.37175e-18 -2.62359e-17)
(1 3.96883e-17 7.9395e-17)
(1 2.14829e-17 -3.65365e-17)
(1 1.67705e-17 -7.10759e-17)
(1 2.5887e-17 8.24149e-18)
(1 2.33531e-17 3.6514e-17)
(1 3.93908e-17 -4.02191e-17)
(1 2.78587e-17 7.47722e-18)
(1 1.36555e-16 -2.56208e-17)
(1 4.90695e-17 -4.12823e-17)
(1 2.86846e-17 8.14591e-18)
(1 -4.05548e-17 9.81286e-17)
(1 1.47039e-16 -1.55194e-17)
(1 1.23477e-16 -9.91084e-17)
(1 -1.03764e-16 8.96317e-18)
(1 5.23641e-16 -8.29187e-16)
(1 2.58597e-16 1.24233e-17)
(1 -6.28015e-16 -2.43006e-16)
(1 -5.01632e-17 9.28702e-19)
(1 -1.02216e-17 8.70928e-16)
(1 5.61887e-18 7.5061e-17)
(1 7.25731e-16 2.51978e-16)
(1 -2.97652e-17 1.13539e-16)
(1 -5.84344e-16 -4.04059e-17)
(1 -6.73584e-17 -7.42913e-16)
(1 4.18573e-19 -1.39232e-17)
(1 -1.11765e-16 -1.29562e-17)
(1 -1.98973e-16 9.16891e-16)
(1 1.10676e-16 1.74547e-15)
(1 4.36498e-16 -4.09694e-16)
(1 -6.20037e-17 -9.63719e-16)
(1 7.33149e-19 -2.00112e-16)
(1 -1.70526e-16 -5.80664e-17)
(1 -2.97336e-17 8.02197e-17)
(1 1.12529e-16 4.03899e-17)
(1 2.86706e-17 -8.65379e-17)
(1 2.2214e-17 1.28763e-17)
(1 1.71106e-17 1.17085e-16)
(1 2.96118e-17 -1.95638e-16)
(1 2.09436e-17 2.55118e-16)
(1 2.36224e-17 9.40864e-17)
(1 6.86176e-17 -1.21387e-16)
(1 9.11963e-18 -7.08799e-17)
(1 -3.98828e-17 -1.69278e-16)
(1 2.2043e-17 -1.30785e-16)
(1 1.68158e-16 3.46973e-17)
(1 -7.61549e-17 2.27167e-18)
(1 5.43754e-16 -4.31382e-16)
(1 5.48437e-16 -4.23202e-16)
(1 -1.54501e-16 -2.52892e-16)
(1 2.36158e-16 -5.14712e-16)
(1 -4.77005e-16 -4.65011e-17)
(1 -9.15418e-17 3.57001e-16)
(1 6.1535e-16 1.04421e-15)
(1 2.95339e-16 6.00859e-16)
(1 -8.53783e-16 2.94024e-17)
(1 1.15516e-16 -6.49266e-16)
(1 -7.82351e-17 -2.30768e-16)
(1 -3.63261e-16 -2.41564e-16)
(1 -8.71478e-16 5.35671e-16)
(1 1.5612e-16 2.21791e-15)
(1 -8.26978e-17 -3.02747e-16)
(1 1.84627e-16 -9.59925e-16)
(1 1.90401e-16 -3.68938e-16)
(1 -6.94919e-18 -4.44868e-17)
(1 3.46689e-17 4.52993e-17)
(1 1.48207e-17 5.40372e-17)
(1 3.5694e-18 -1.58267e-16)
(1 2.44791e-17 2.98175e-17)
(1 -1.26793e-17 8.22161e-17)
(1 1.02602e-17 -8.65051e-17)
(1 -6.5417e-17 3.27512e-17)
(1 1.73519e-16 6.1484e-17)
(1 -7.52574e-17 1.21071e-18)
(1 3.29906e-17 3.4572e-17)
(1 9.04116e-17 1.36434e-17)
(1 7.57947e-17 7.74264e-18)
(1 6.3346e-17 -3.70881e-17)
(1 -1.30963e-16 1.62452e-17)
(1 -3.06085e-16 -2.70513e-16)
(1 1.11224e-16 -6.64872e-16)
(1 4.51131e-16 -1.00702e-15)
(1 -2.66494e-16 7.08387e-16)
(1 1.13069e-16 9.40722e-16)
(1 -1.76769e-18 1.82614e-16)
(1 -2.36862e-16 1.21164e-16)
(1 2.99397e-16 8.18814e-18)
(1 2.79942e-16 -5.90395e-18)
(1 -1.75015e-16 -7.16215e-16)
(1 -5.05746e-17 -7.09328e-18)
(1 -2.17212e-17 6.73354e-16)
(1 -2.44964e-16 4.85784e-16)
(1 -1.84922e-16 1.07432e-15)
(1 2.13834e-15 -1.62489e-16)
(1 -4.985e-18 -9.38409e-16)
(1 7.99805e-17 -1.56338e-16)
(1 -2.61951e-16 -1.50838e-16)
(1 -6.72022e-17 -8.11572e-17)
(1 1.20215e-16 9.21345e-17)
(1 3.1358e-17 -1.42807e-17)
(1 2.75096e-17 -2.04203e-17)
(1 1.49952e-17 -2.39113e-16)
(1 3.33022e-17 -1.90531e-16)
(1 2.65536e-17 7.30984e-16)
(1 6.24365e-17 7.67583e-17)
(1 -3.94287e-17 -9.2391e-17)
(1 -2.88632e-18 -7.56551e-17)
(1 1.0797e-16 -7.26712e-17)
(1 -5.90026e-17 -5.12807e-16)
(1 1.18433e-16 -7.149e-16)
(1 1.06638e-16 4.1761e-16)
(1 -5.047e-16 5.30912e-16)
(1 -5.73578e-17 -7.45128e-16)
(1 2.49341e-16 -8.21525e-16)
(1 1.37962e-16 7.94563e-17)
(1 8.1114e-16 -3.34556e-17)
(1 -8.53306e-17 7.70464e-16)
(1 -4.18652e-16 8.8657e-16)
(1 -8.4323e-16 1.74374e-16)
(1 3.95911e-16 -2.98277e-17)
(1 4.01592e-16 -1.84506e-16)
(1 -1.01811e-15 -1.78189e-16)
(1 -3.69055e-16 -4.76386e-17)
(1 -1.25638e-15 2.26509e-16)
(1 4.00773e-16 1.34611e-15)
(1 4.617e-16 1.02191e-17)
(1 2.77918e-16 -1.07246e-15)
(1 1.71564e-16 -5.38217e-16)
(1 1.75175e-17 -9.36534e-17)
(1 1.37879e-17 1.52103e-17)
(1 2.57169e-17 -1.05716e-16)
(1 -3.85677e-17 -6.24736e-17)
(1 3.49267e-17 -9.65984e-18)
(1 -1.15682e-17 1.8711e-16)
(1 -5.79983e-19 -1.08294e-18)
(1 3.8657e-17 1.32857e-16)
(1 7.57305e-17 4.81051e-17)
(1 -5.58448e-17 2.05784e-18)
(1 5.18737e-17 1.57396e-17)
(1 6.53963e-17 -2.57141e-17)
(1 5.85242e-17 -2.8093e-17)
(1 -5.87068e-17 -2.54979e-17)
(1 6.75338e-17 -3.38805e-17)
(1 5.4376e-16 -9.66044e-17)
(1 6.49816e-17 -7.68442e-16)
(1 -5.94628e-16 -1.05117e-15)
(1 6.2297e-17 6.74596e-16)
(1 4.04288e-17 7.2847e-16)
(1 -2.35321e-17 2.95421e-16)
(1 6.44614e-16 1.83898e-16)
(1 1.20164e-16 -5.20575e-17)
(1 -4.48562e-16 4.2466e-17)
(1 -1.90614e-16 -1.91996e-16)
(1 -1.03296e-16 6.46923e-17)
(1 6.5215e-17 2.71561e-16)
(1 -3.99153e-16 2.06553e-16)
(1 -3.79228e-16 1.09078e-15)
(1 -2.5097e-15 -3.36339e-16)
(1 3.16531e-16 -1.18196e-15)
(1 2.10657e-16 -2.42784e-16)
(1 -1.94301e-18 -2.90893e-16)
(1 -1.14905e-16 -4.99757e-16)
(1 -1.26831e-16 1.64267e-16)
(1 -2.87883e-17 5.0284e-16)
(1 8.22059e-17 -1.15995e-16)
(1 -2.43817e-18 1.90842e-16)
(1 1.80487e-18 -1.43009e-16)
(1 -5.85748e-17 2.24883e-16)
(1 7.15174e-17 -2.68713e-18)
(1 1.56162e-16 2.80598e-17)
(1 -2.00891e-17 -6.53336e-17)
(1 -1.74781e-16 -7.32908e-17)
(1 -1.22385e-17 -1.24848e-16)
(1 -8.63287e-17 -2.37084e-16)
(1 -7.18467e-17 -4.85211e-17)
(1 1.39394e-17 2.30701e-16)
(1 2.45815e-16 -8.94286e-16)
(1 1.9394e-16 -2.99882e-16)
(1 1.16446e-16 6.82472e-16)
(1 1.72547e-16 -6.88014e-17)
(1 -6.75046e-17 3.09959e-16)
(1 -1.04281e-16 3.17018e-16)
(1 -2.72537e-16 -2.8752e-17)
(1 1.65137e-16 9.82035e-17)
(1 5.41616e-16 -1.93554e-16)
(1 8.34156e-16 -4.20592e-17)
(1 1.52147e-16 -4.48314e-17)
(1 1.42837e-15 3.93662e-16)
(1 -8.10444e-16 1.54522e-15)
(1 8.33797e-16 -2.61409e-16)
(1 3.54199e-16 -8.70023e-16)
(1 4.48531e-16 -5.43342e-16)
(1 4.92922e-17 -1.04859e-16)
(1 2.73873e-17 1.58943e-17)
(1 1.25869e-16 -2.84518e-16)
(1 -6.10091e-17 -1.93377e-17)
(1 8.24384e-17 -9.8257e-17)
(1 5.53516e-18 3.62941e-16)
(1 -6.5753e-17 1.76794e-16)
(1 -1.18276e-18 6.28951e-17)
(1 9.11241e-17 4.94392e-17)
(1 2.06998e-16 5.04785e-17)
(1 4.3884e-18 7.44105e-17)
(1 -1.54561e-16 -1.42773e-16)
(1 2.67062e-17 -5.25462e-17)
(1 -1.38546e-16 -1.00146e-17)
(1 -4.4292e-18 -2.53668e-17)
(1 8.7675e-18 -1.14211e-16)
(1 2.50743e-17 -3.99944e-16)
(1 2.49719e-16 -4.84985e-16)
(1 6.87627e-17 -3.23962e-16)
(1 -8.47661e-17 -3.3066e-16)
(1 -8.0744e-17 7.63124e-16)
(1 -4.89071e-17 6.44386e-16)
(1 2.44619e-16 -3.04203e-16)
(1 9.31141e-17 1.12669e-16)
(1 -1.773e-16 -2.97637e-16)
(1 -1.04971e-16 -4.60245e-18)
(1 7.95992e-17 6.82888e-16)
(1 -7.86083e-16 2.24304e-16)
(1 -5.43595e-16 8.78065e-16)
(1 -4.5319e-16 -4.41145e-16)
(1 -2.8288e-16 -1.01109e-15)
(1 2.79366e-16 -2.33805e-16)
(1 -1.26582e-16 -6.66028e-16)
(1 -1.75053e-16 -8.78221e-17)
(1 -9.96228e-17 5.23355e-16)
(1 9.0096e-17 1.77969e-16)
(1 1.16749e-16 -7.50892e-17)
(1 -4.98473e-17 1.62569e-16)
(1 -1.24306e-18 -3.69683e-17)
(1 -4.96791e-17 5.33056e-17)
(1 7.63807e-17 -1.13298e-16)
(1 2.99911e-17 1.13165e-16)
(1 -3.30944e-17 -1.27737e-16)
(1 -2.00495e-16 -1.46712e-16)
(1 1.25409e-17 -2.83578e-16)
(1 -3.54087e-16 -6.43752e-16)
(1 -1.90362e-16 1.83908e-16)
(1 4.73749e-16 5.40914e-16)
(1 3.55743e-16 -7.31118e-16)
(1 1.72313e-16 -7.68942e-16)
(1 5.20854e-17 2.50694e-16)
(1 9.63797e-17 4.46352e-17)
(1 -9.08995e-18 4.1011e-16)
(1 6.74657e-18 7.48174e-16)
(1 4.59408e-17 -9.17706e-17)
(1 2.68156e-16 2.03735e-16)
(1 5.73138e-17 -5.47426e-16)
(1 -5.47786e-17 -1.43707e-16)
(1 -6.87005e-16 2.97877e-17)
(1 7.71515e-16 4.63724e-16)
(1 4.24167e-16 1.7769e-15)
(1 3.00539e-15 -6.60922e-17)
(1 3.70508e-16 -9.69352e-16)
(1 3.69088e-16 -4.97387e-16)
(1 -5.46023e-17 8.63163e-17)
(1 5.10263e-16 1.2691e-16)
(1 2.98264e-16 -2.60041e-16)
(1 -1.98977e-16 1.13346e-16)
(1 2.35104e-16 -1.30248e-16)
(1 8.14101e-17 2.74179e-16)
(1 -1.32702e-16 1.03072e-17)
(1 -1.00969e-16 1.71275e-16)
(1 4.23498e-17 1.03285e-16)
(1 2.93077e-16 4.88961e-16)
(1 -1.07058e-17 1.81909e-17)
(1 -1.98181e-16 -4.60652e-16)
(1 -2.01993e-17 -1.1174e-16)
(1 -3.00166e-16 8.64937e-18)
(1 -3.98955e-18 -5.38341e-17)
(1 -6.02216e-16 -4.5561e-16)
(1 1.51315e-16 -8.50195e-16)
(1 9.36642e-16 -9.53217e-16)
(1 -2.23937e-16 4.58777e-16)
(1 2.43706e-17 5.98711e-16)
(1 1.97514e-16 3.75325e-16)
(1 -7.44219e-16 1.21084e-16)
(1 6.62876e-16 4.03559e-17)
(1 6.69474e-16 2.63676e-16)
(1 -3.01434e-16 -6.02658e-17)
(1 2.86478e-16 6.48427e-17)
(1 1.05061e-16 1.89817e-16)
(1 -2.72168e-15 1.16379e-17)
(1 -9.18337e-16 6.41937e-16)
(1 4.21601e-16 -1.73062e-16)
(1 2.48752e-16 -9.75127e-16)
(1 9.19821e-17 1.6719e-17)
(1 -1.02399e-16 -8.10784e-17)
(1 4.0385e-17 -1.69659e-17)
(1 -8.90939e-17 -4.3947e-18)
(1 -6.29021e-17 1.62554e-16)
(1 1.31431e-16 7.02946e-17)
(1 -4.08332e-17 2.18875e-16)
(1 1.0131e-16 -8.53646e-17)
(1 7.83075e-17 7.25392e-17)
(1 2.97534e-17 -1.47365e-16)
(1 2.24577e-16 7.54755e-17)
(1 -8.6305e-17 -7.53967e-17)
(1 -8.13755e-16 -1.51853e-16)
(1 -1.08539e-17 -1.52266e-16)
(1 -1.02494e-15 -3.33724e-16)
(1 -6.16861e-16 2.81545e-17)
(1 1.70892e-15 2.23992e-16)
(1 6.34443e-16 -4.48787e-16)
(1 2.36627e-16 -7.75119e-16)
(1 -5.25601e-17 5.62295e-16)
(1 -2.72165e-16 5.3322e-16)
(1 5.04839e-17 -5.0923e-18)
(1 1.99934e-17 1.07532e-17)
(1 6.18185e-16 -9.92602e-18)
(1 2.36311e-16 2.19789e-16)
(1 -1.62502e-15 -1.90075e-16)
(1 -1.20571e-15 -1.00555e-16)
(1 1.82439e-15 -5.29232e-17)
(1 1.13986e-15 -4.96409e-17)
(1 -8.55377e-16 1.11239e-15)
(1 -1.22011e-15 -2.24195e-16)
(1 -1.07099e-15 -5.95481e-16)
(1 3.65516e-16 -3.68567e-17)
(1 3.10137e-17 8.52507e-17)
(1 1.37394e-15 -1.35295e-16)
(1 1.30321e-15 7.50597e-17)
(1 4.02744e-16 1.57439e-16)
(1 7.54952e-16 3.71112e-17)
(1 9.58772e-17 2.4756e-16)
(1 3.14371e-16 3.18467e-17)
(1 9.18219e-17 8.39381e-16)
(1 2.92537e-18 1.03662e-16)
(1 1.14248e-18 1.99342e-15)
(1 -1.09001e-16 1.58118e-16)
(1 -5.74538e-16 -1.51705e-15)
(1 -4.66192e-17 -1.53091e-16)
(1 -1.06673e-15 -6.76641e-17)