/*--------------------------------*- C++ -*----------------------------------*\
  =========                 |
  \\      /  F ield         | OpenFOAM: The Open Source CFD Toolbox
   \\    /   O peration     | Website:  https://openfoam.org
    \\  /    A nd           | Version:  dev
     \\/     M anipulation  |
\*---------------------------------------------------------------------------*/
FoamFile
{
    version     2.0;
    format      ascii;
    class       volScalarField;
    location    "0/region0_to_"(region0_to.*)"Region_masterRegion";
    object      deltaf;
}
// * * * * * * * * * * * * * * * * * * * * * * * * * * * * * * * * * * * * * //

dimensions      [0 1 0 0 0 0 0];

internalField   uniform 0.0;

boundaryField
{
    // cyclic boundaries between film patches
    "(cube[0-9][0-9]_side[0-9]_to_cube[0-9][0-9]_side[0-9])"
    {
        type            nonuniformTransformCyclic;
    }

    // top film surface
    "(.*top)"
    {
        type            zeroGradient;
    }

    // mapped boundaries
    "(region0_to.*)"
    {
        type            zeroGradient;
    }

    // floor sides
    walls
    {
        type            zeroGradient;
    }
}

// ************************************************************************* //
