/*--------------------------------*- C++ -*----------------------------------*\
| =========                 |                                                 |
| \\      /  F ield         | OpenFOAM: The Open Source CFD Toolbox           |
|  \\    /   O peration     | Version:  dev                                   |
|   \\  /    A nd           | Web:      www.OpenFOAM.org                      |
|    \\/     M anipulation  |                                                 |
\*---------------------------------------------------------------------------*/
FoamFile
{
    version     2.0;
    format      ascii;
    class       volScalarField;
    object      nuSgs;
}
// * * * * * * * * * * * * * * * * * * * * * * * * * * * * * * * * * * * * * //

dimensions      [0 2 -1 0 0 0 0];

internalField   uniform 0.0544766;

boundaryField
{
    inlet
    {
        type            fixedValue;
        value           uniform 0.0544766;
    }

    outlet
    {
        type            inletOutlet;
        inletValue      uniform 0.0544766;
        value           uniform 0.0544766;
    }

    front
    {
        type           symmetryPlane;
    }

    back
    {
        type           symmetryPlane;
    }

    lowerWall
    {
        type            nutUSpaldingWallFunction;
        value           uniform 0.0544766;
    }

    upperWall
    {
        type           symmetryPlane;
    }

    "motorBike_.*"
    {
        type            nutUSpaldingWallFunction;
        value           uniform 0.0544766;
    }

    "proc.*"
    {
        type            processor;
    }
}

// ************************************************************************* //
