/*--------------------------------*- C++ -*----------------------------------*\
| =========                 |                                                 |
| \\      /  F ield         | OpenFOAM: The Open Source CFD Toolbox           |
|  \\    /   O peration     | Version:  dev                                   |
|   \\  /    A nd           | Web:      www.OpenFOAM.org                      |
|    \\/     M anipulation  |                                                 |
\*---------------------------------------------------------------------------*/
FoamFile
{
    version     2.0;
    format      ascii;
    class       volVectorField;
    location    "0";
    object      U;
}
// * * * * * * * * * * * * * * * * * * * * * * * * * * * * * * * * * * * * * //

dimensions      [0 1 -1 0 0 0 0];

internalField   nonuniform List<vector>
4096
(
(-0.0376011 0.020584 -0.0051027)
(-0.0262359 0.0149309 -0.0048244)
(-0.0141003 0.00810973 -0.00427023)
(-0.00304323 0.00116024 -0.00352459)
(0.00525225 -0.00486054 -0.00270092)
(0.00952492 -0.00903873 -0.00192446)
(0.00912652 -0.0107411 -0.00131334)
(0.00411911 -0.00970993 -0.000960557)
(-0.00473519 -0.00610113 -0.000919911)
(-0.0160901 -0.000461402 -0.00119772)
(-0.0282192 0.00635355 -0.0017518)
(-0.0392773 0.0133076 -0.00249781)
(-0.0475807 0.019341 -0.00332211)
(-0.0518636 0.0235325 -0.00409906)
(-0.0514717 0.0252412 -0.00471027)
(-0.0464633 0.0242055 -0.00506267)
(-0.0306494 0.0204311 -0.00498325)
(-0.0191731 0.0148706 -0.00454978)
(-0.00690198 0.00817023 -0.0040222)
(0.00429437 0.00135137 -0.0034808)
(0.0127117 -0.00454891 -0.00300793)
(0.0170701 -0.0086351 -0.0026754)
(0.0167085 -0.010288 -0.00253376)
(0.0116831 -0.00925717 -0.00260456)
(0.0027589 -0.00569861 -0.00287714)
(-0.00870727 -0.000151308 -0.00331014)
(-0.020972 0.00654308 -0.00383774)
(-0.0321694 0.0133667 -0.00437962)
(-0.0405946 0.0192796 -0.00485317)
(-0.0449632 0.023379 -0.00518616)
(-0.0446079 0.0250378 -0.00532779)
(-0.0395815 0.0240023 -0.0052565)
(-0.0211407 0.0206491 -0.00543572)
(-0.00955843 0.0153474 -0.00489191)
(0.00277749 0.00893612 -0.00440037)
(0.0139877 0.0023926 -0.00403592)
(0.0223658 -0.00328806 -0.00385391)
(0.026638 -0.00724378 -0.00388191)
(0.0261561 -0.00887515 -0.00411557)
(0.0209947 -0.00793502 -0.00451934)
(0.0119395 -0.00456546 -0.00503187)
(0.000367213 0.000723277 -0.00557528)
(-0.0119625 0.00712884 -0.00606692)
(-0.0231738 0.0136773 -0.00643194)
(-0.0315598 0.0193706 -0.00661462)
(-0.0358419 0.0233392 -0.00658703)
(-0.0353662 0.0249763 -0.00635326)
(-0.0302038 0.0240312 -0.00594893)
(-0.0105233 0.0212049 -0.00638979)
(0.00114355 0.0162888 -0.00579723)
(0.0134638 0.0102909 -0.0053457)
(0.0245604 0.00412547 -0.0051039)
(0.0327443 -0.00126993 -0.00510853)
(0.0367713 -0.00507663 -0.00535875)
(0.0360303 -0.00671783 -0.00581639)
(0.0306356 -0.00594485 -0.00641182)
(0.0214082 -0.00287429 -0.00705452)
(0.00975112 0.00202912 -0.00764678)
(-0.00256299 0.00802162 -0.0080985)
(-0.0136608 0.0141921 -0.00834087)
(-0.0218524 0.0196 -0.00833686)
(-0.0258892 0.0234194 -0.00808696)
(-0.0251543 0.025066 -0.00762913)
(-0.0197585 0.024288 -0.00703312)
(-0.000413375 0.022014 -0.00769925)
(0.0113038 0.0175516 -0.00712687)
(0.0235302 0.0120283 -0.00671314)
(0.034403 0.00628616 -0.00652101)
(0.0422673 0.00119821 -0.00657962)
(0.0459274 -0.00246361 -0.00687991)
(0.0448282 -0.00414452 -0.00737614)
(0.0391384 -0.00358973 -0.00799281)
(0.0297238 -0.000882624 -0.00863615)
(0.0180162 0.00356736 -0.00920833)
(0.00579578 0.00908543 -0.00962229)
(-0.00507821 0.0148326 -0.00981496)
(-0.0129501 0.0199329 -0.00975688)
(-0.0166198 0.0236072 -0.00945678)
(-0.0155266 0.0252933 -0.00896032)
(-0.00983553 0.0247334 -0.00834311)
(0.00765102 0.0229531 -0.00916483)
(0.0193767 0.0189434 -0.00867841)
(0.0314452 0.0138838 -0.00829447)
(0.0420182 0.00854566 -0.00807141)
(0.049486 0.00374056 -0.00804307)
(0.0527136 0.000197419 -0.00821371)
(0.0512114 -0.001547 -0.0085573)
(0.0452096 -0.00122822 -0.00902161)
(0.0356215 0.0011063 -0.00953603)
(0.0239053 0.0051038 -0.0100223)
(0.0118426 0.0101583 -0.0104065)
(0.00126852 0.0155015 -0.01063)
(-0.00620681 0.0203187 -0.0106588)
(-0.00944375 0.0238741 -0.0104882)
(-0.00794747 0.0256236 -0.0101444)
(-0.0019445 0.0252998 -0.00967964)
(0.0124435 0.0238792 -0.0105645)
(0.0241343 0.0202523 -0.0102167)
(0.0360051 0.0155748 -0.00984996)
(0.0462477 0.0105599 -0.00952005)
(0.0533027 0.00597001 -0.00927712)
(0.0560978 0.00250133 -0.0091581)
(0.0542094 0.000679295 -0.00918111)
(0.0479263 0.000780205 -0.0093427)
(0.0382048 0.00278975 -0.00961833)
(0.0265233 0.00640458 -0.00996609)
(0.0146582 0.011077 -0.010333)
(0.0044146 0.0160968 -0.0106633)
(-0.00264775 0.0206986 -0.0109064)
(-0.00545211 0.0241793 -0.0110255)
(-0.00356953 0.0260064 -0.0110023)
(0.00271465 0.0259007 -0.0108403)
(0.0132351 0.024651 -0.0116866)
(0.024853 0.0212788 -0.011509)
(0.0365164 0.0168437 -0.0111443)
(0.0464483 0.0120221 -0.0106479)
(0.0531369 0.00754714 -0.0100954)
(0.0555655 0.00409739 -0.00957088)
(0.0533663 0.00219549 -0.00915417)
(0.0468755 0.00212987 -0.00890875)
(0.0370809 0.00391152 -0.00887204)
(0.0254722 0.00727177 -0.00904964)
(0.0138147 0.0117017 -0.0094145)
(0.00388184 0.0165279 -0.00991106)
(-0.00281398 0.0210147 -0.0104637)
(-0.00525179 0.0244765 -0.0109882)
(-0.00305847 0.0263835 -0.0114047)
(0.00343334 0.0264445 -0.01165)
(0.00990513 0.0251512 -0.0123612)
(0.0214233 0.0218666 -0.0123596)
(0.0329009 0.0174974 -0.0119815)
(0.0425893 0.0127098 -0.0112845)
(0.0490136 0.00823185 -0.0103746)
(0.0511975 0.00474266 -0.00939037)
(0.0488103 0.00277082 -0.00848171)
(0.0422169 0.00261536 -0.00778692)
(0.0324209 0.00430092 -0.00741181)
(0.0209119 0.0075734 -0.00741347)
(0.00944024 0.0119372 -0.00779164)
(-0.00024901 0.0167292 -0.00848874)
(-0.00668053 0.0212189 -0.00939862)
(-0.00887362 0.0247202 -0.0103828)
(-0.00649241 0.0266974 -0.0112914)
(0.000101881 0.0268484 -0.0119861)
(0.00295941 0.0253035 -0.0124857)
(0.0143662 0.0219263 -0.0126391)
(0.0257081 0.0174363 -0.0122342)
(0.0352571 0.0125183 -0.0113329)
(0.0415596 0.00791998 -0.0100722)
(0.0436577 0.00433895 -0.00864417)
(0.041234 0.00231773 -0.00726618)
(0.0346587 0.0021628 -0.006148)
(0.0249328 0.00389866 -0.00545987)
(0.0135354 0.00726357 -0.00530652)
(0.00219949 0.0117479 -0.0057113)
(-0.00735032 0.0166702 -0.00661259)
(-0.01366 0.0212801 -0.0078732)
(-0.0157674 0.0248734 -0.00930122)
(-0.0133498 0.0269003 -0.0106792)
(-0.00677369 0.027051 -0.0117975)
(-0.00654593 0.0250849 -0.0120399)
(0.00475486 0.021449 -0.0123037)
(0.0160319 0.01667 -0.011863)
(0.0255669 0.0114768 -0.0107848)
(0.0319086 0.00665904 -0.00923334)
(0.0340929 0.00294775 -0.00744485)
(0.0317895 0.000905185 -0.00569156)
(0.0253503 0.000841031 -0.00424039)
(0.0157555 0.00276593 -0.00331223)
(0.00446421 0.00638937 -0.00304836)
(-0.00680659 0.0111624 -0.00348897)
(-0.0163424 0.0163597 -0.00456701)
(-0.0226913 0.0211891 -0.00611839)
(-0.0248852 0.0249129 -0.00790693)
(-0.0225879 0.0269614 -0.00966035)
(-0.016148 0.0270215 -0.0111117)
(-0.0171645 0.0245289 -0.0110903)
(-0.00594824 0.0205074 -0.0114032)
(0.00534453 0.0153151 -0.0109227)
(0.0149932 0.00974391 -0.00972211)
(0.021529 0.00464103 -0.00798415)
(0.0239585 0.000780812 -0.00597343)
(0.021914 -0.00125183 -0.00399603)
(0.015708 -0.0011488 -0.00235296)
(0.00628531 0.00107509 -0.00129432)
(-0.00492125 0.00508382 -0.000981269)
(-0.0162077 0.0102699 -0.00146151)
(-0.025857 0.0158451 -0.00266196)
(-0.0324002 0.0209597 -0.00439991)
(-0.0348394 0.0248327 -0.00641077)
(-0.0328013 0.0268716 -0.00838838)
(-0.0265946 0.0267646 -0.0100316)
(-0.0272795 0.0237201 -0.00978042)
(-0.0161134 0.0192449 -0.0100735)
(-0.00472658 0.013578 -0.00955556)
(0.00514596 0.00758353 -0.00830548)
(0.0120014 0.00217315 -0.00651362)
(0.0147977 -0.001832 -0.00445275)
(0.0131112 -0.003825 -0.00243657)
(0.00720021 -0.00350382 -0.000771953)
(-0.00203562 -0.000916517 0.000287688)
(-0.0131918 0.00354562 0.000581019)
(-0.0245721 0.00920609 6.3328e-05)
(-0.0344454 0.0152045 -0.00118663)
(-0.0413083 0.0206269 -0.00297858)
(-0.0441145 0.024645 -0.00503969)
(-0.0424346 0.0266445 -0.00705614)
(-0.0365229 0.0263194 -0.00872087)
(-0.0353499 0.0227816 -0.00830985)
(-0.024192 0.0178537 -0.00851714)
(-0.0126472 0.0117231 -0.00796954)
(-0.00247464 0.00532444 -0.00675047)
(0.00477723 -0.000368955 -0.00504552)
(0.00800603 -0.00449296 -0.00311422)
(0.0067224 -0.0064226 -0.00125051)
(0.00112317 -0.00586554 0.000261929)
(-0.00793937 -0.0029057 0.00119286)
(-0.0190872 0.00200892 0.0014005)
(-0.0306254 0.00813301 0.000853161)
(-0.0407987 0.0145356 -0.000365882)
(-0.0480582 0.0202412 -0.00207105)
(-0.0512971 0.0243784 -0.0040027)
(-0.0500201 0.0263146 -0.00586668)
(-0.0444201 0.0257536 -0.00737915)
(-0.0401457 0.0218561 -0.00690353)
(-0.0289528 0.0165454 -0.00697208)
(-0.0172103 0.0100326 -0.00640715)
(-0.00670725 0.00331048 -0.0052948)
(0.000957507 -0.00259832 -0.00380436)
(0.00461878 -0.00679697 -0.00216264)
(0.00372137 -0.00864917 -0.000619504)
(-0.00159665 -0.00787435 0.000590187)
(-0.0105258 -0.00458958 0.00128224)
(-0.0217085 0.000707745 0.00135122)
(-0.0334444 0.00721405 0.000786536)
(-0.0439483 0.0139402 -0.000325906)
(-0.0516208 0.0198614 -0.00181672)
(-0.0552923 0.0240734 -0.00345887)
(-0.0544015 0.0259322 -0.00500225)
(-0.0490827 0.0251532 -0.00621184)
(-0.0409361 0.0210844 -0.00577699)
(-0.0296705 0.0155191 -0.00567499)
(-0.0177205 0.00876372 -0.00510774)
(-0.00690684 0.00184821 -0.00416162)
(0.00112439 -0.00417557 -0.00298063)
(0.00515223 -0.00839325 -0.00174444)
(0.00456568 -0.0101657 -0.000641162)
(-0.000544519 -0.00922434 0.000161291)
(-0.00940058 -0.00571169 0.000540699)
(-0.020656 -0.000159741 0.000439188)
(-0.0325993 0.00658917 -0.000127891)
(-0.0434139 0.013509 -0.00107425)
(-0.051453 0.0195453 -0.00225575)
(-0.0554911 0.0237764 -0.00349242)
(-0.0549112 0.0255552 -0.00459587)
(-0.0498001 0.0246096 -0.00539809)
(-0.0375986 0.0158166 0.00597748)
(-0.0264975 0.0101809 0.00641667)
(-0.0145793 0.00336288 0.00703301)
(-0.00365998 -0.00359821 0.00773267)
(0.00459836 -0.00964364 0.00840925)
(0.00894018 -0.0138558 0.00895987)
(0.00870672 -0.0155963 0.00930078)
(0.003935 -0.0146015 0.00938007)
(-0.00464872 -0.0110217 0.00918556)
(-0.0157394 -0.00539931 0.00874675)
(-0.0276508 0.00141269 0.00813035)
(-0.038571 0.00837852 0.00743021)
(-0.0468373 0.0144367 0.00675304)
(-0.0511896 0.0186621 0.00620205)
(-0.0509629 0.0204086 0.00586121)
(-0.0461903 0.019409 0.00578239)
(-0.0312309 0.0158481 0.00685463)
(-0.0200208 0.0103009 0.00745374)
(-0.00796279 0.00360333 0.00804411)
(0.00310584 -0.00322371 0.0085359)
(0.0115002 -0.00914192 0.00885437)
(0.0159441 -0.0132531 0.00895117)
(0.0157632 -0.0149341 0.00881164)
(0.0109866 -0.0139304 0.00845698)
(0.00234106 -0.0103936 0.00794107)
(-0.00885877 -0.00485944 0.0073423)
(-0.0209101 0.00183239 0.00675177)
(-0.0319797 0.00866438 0.0062594)
(-0.040382 0.0145953 0.00594028)
(-0.0448363 0.0187196 0.00584314)
(-0.044662 0.0204064 0.00598284)
(-0.0398844 0.0193977 0.00633807)
(-0.0222278 0.0161669 0.00713101)
(-0.0109195 0.0108757 0.00784386)
(0.00120235 0.00446727 0.00839766)
(0.012291 -0.00208171 0.00870818)
(0.0206584 -0.00777529 0.00872827)
(0.0250325 -0.0117494 0.00845501)
(0.0247495 -0.0134019 0.00793007)
(0.019854 -0.0124823 0.00723331)
(0.011091 -0.0091295 0.00647066)
(-0.000207151 -0.00385122 0.00575808)
(-0.0123225 0.00255178 0.00520401)
(-0.0234122 0.00910588 0.00489285)
(-0.0317875 0.0148122 0.00487212)
(-0.0361717 0.0187992 0.0051451)
(-0.0358953 0.0204571 0.0056703)
(-0.0309987 0.0195323 0.00636771)
(-0.0119606 0.0167243 0.00676594)
(-0.000580072 0.0118179 0.00752905)
(0.0115201 0.00582325 0.00804129)
(0.0224964 -0.000346026 0.00822475)
(0.0306779 -0.00575181 0.00805164)
(0.0348209 -0.00957383 0.00754845)
(0.0342968 -0.011233 0.00679181)
(0.0291866 -0.0104777 0.00589685)
(0.0202682 -0.007422 0.00499967)
(0.00889767 -0.00252822 0.00423674)
(-0.00319618 0.00346128 0.00372416)
(-0.0141735 0.00963579 0.00354004)
(-0.0223629 0.0150541 0.00371255)
(-0.0265158 0.0188887 0.00421557)
(-0.025998 0.0205531 0.00497255)
(-0.0208868 0.0197926 0.00586817)
(-0.00199212 0.0174356 0.00581593)
(0.0094238 0.0129841 0.00655826)
(0.0214199 0.00746484 0.00703033)
(0.0321687 0.00171908 0.00716035)
(0.0400338 -0.00337957 0.00692866)
(0.0438196 -0.00705755 0.00637065)
(0.0429519 -0.0087576 0.00557127)
(0.037564 -0.00822199 0.00465215)
(0.0284761 -0.00553111 0.00375307)
(0.0170699 -0.00109194 0.00301082)
(0.00507996 0.00442236 0.00253836)
(-0.0056698 0.0101734 0.00240772)
(-0.0135426 0.0152844 0.00263892)
(-0.0173382 0.0189747 0.00319686)
(-0.0164766 0.0206798 0.00399662)
(-0.0110877 0.0201389 0.00491637)
(0.00616118 0.0181924 0.00442556)
(0.0175702 0.0141967 0.00507931)
(0.0293958 0.00914203 0.00551877)
(0.0398364 0.00379912 0.00567715)
(0.0473027 -0.0010198 0.00553044)
(0.0506596 -0.00458373 0.00510105)
(0.0493982 -0.00635271 0.00445435)
(0.0437119 -0.0060585 0.00368871)
(0.034466 -0.00374475 0.00292058)
(0.0230667 0.000238928 0.00226681)
(0.0112471 0.00528868 0.00182695)
(0.000805555 0.0106368 0.00166804)
(-0.00666823 0.0154679 0.0018144)
(-0.0100348 0.0190439 0.00224381)
(-0.0087795 0.0208178 0.0028909)
(-0.00309216 0.0205184 0.00365707)
(0.0112593 0.0188794 0.00280547)
(0.02262 0.0152708 0.00331634)
(0.0342345 0.0105994 0.00373577)
(0.0443332 0.00557734 0.00399999)
(0.051379 0.000968187 0.00406887)
(0.0543007 -0.002529 0.00393195)
(0.0526556 -0.0043844 0.00361008)
(0.0466955 -0.00431659 0.00315216)
(0.0373275 -0.00233481 0.00262783)
(0.0259763 0.00126184 0.00211686)
(0.0143678 0.00592839 0.00169706)
(0.00426818 0.0109555 0.00143243)
(-0.00278493 0.0155766 0.00136334)
(-0.00571612 0.0190858 0.00150035)
(-0.00407708 0.020946 0.00182259)
(0.00188396 0.0208732 0.00228092)
(0.0125268 0.0193918 0.00120089)
(0.0238053 0.0160429 0.00153633)
(0.0352001 0.0116149 0.00195131)
(0.0449754 0.00678297 0.00238274)
(0.0516429 0.00228172 0.00276497)
(0.0541892 -0.00120616 0.00303984)
(0.0522287 -0.00315226 0.00316547)
(0.0460613 -0.00326138 0.00312268)
(0.0366255 -0.00151585 0.00291791)
(0.0253565 0.00182115 0.00258232)
(0.0139677 0.00624418 0.00216703)
(0.00419162 0.011081 0.00173534)
(-0.00248315 0.0155941 0.00135302)
(-0.00503892 0.0190938 0.0010783)
(-0.00308453 0.0210449 0.000952964)
(0.00308378 0.0211492 0.000996031)
(0.00977036 0.0196516 -0.000144834)
(0.0209452 0.0163954 9.25628e-06)
(0.0321454 0.012034 0.000435995)
(0.0416647 0.00723249 0.00107046)
(0.0480539 0.00272089 0.00181609)
(0.0503418 -0.000816517 0.00255936)
(0.0481823 -0.00284378 0.00318709)
(0.0419055 -0.0030534 0.00360367)
(0.0324666 -0.00141245 0.00374564)
(0.0213013 0.00183179 0.00359139)
(0.0101072 0.00618802 0.00316445)
(0.000587176 0.0109942 0.00252985)
(-0.00580922 0.0155175 0.00178423)
(-0.00810664 0.0190669 0.00104111)
(-0.0059533 0.0210994 0.000413588)
(0.000324328 0.0213043 -2.8501e-06)
(0.00340858 0.0196194 -0.00102676)
(0.0144741 0.0162747 -0.00103241)
(0.0255344 0.011793 -0.000579575)
(0.0349042 0.00685754 0.000262824)
(0.0411573 0.00221889 0.00136655)
(0.0433433 -0.00141934 0.00256355)
(0.0411313 -0.00350589 0.00367156)
(0.0348596 -0.0037243 0.00452189)
(0.0254828 -0.00204033 0.00498507)
(0.0144268 0.00129217 0.00499059)
(0.00337284 0.0057685 0.00453765)
(-0.00599769 0.0107084 0.00369523)
(-0.012258 0.0153587 0.00259158)
(-0.0144535 0.0190091 0.0013947)
(-0.0122479 0.0211011 0.000286789)
(-0.00597547 0.0213151 -0.000563513)
(-0.00559134 0.0193001 -0.00130959)
(0.00537596 0.0156994 -0.00142909)
(0.0163723 0.0109286 -0.000939817)
(0.0257221 0.00571531 8.37363e-05)
(0.0320021 0.000852222 0.00148574)
(0.0342578 -0.00292283 0.00305273)
(0.032148 -0.0050378 0.00454614)
(0.0259952 -0.00517196 0.00573861)
(0.016736 -0.00330396 0.0064486)
(0.00577838 0.000284374 0.00656805)
(-0.00521147 0.00504943 0.00607877)
(-0.0145619 0.010267 0.00505526)
(-0.0208492 0.0151419 0.00365333)
(-0.0231147 0.0189293 0.00208639)
(-0.0210113 0.02105 0.000592988)
(-0.0148579 0.0211799 -0.000599523)
(-0.0158599 0.0187426 -0.00094886)
(-0.00496478 0.0147571 -0.00111896)
(0.00605328 0.00957266 -0.000588436)
(0.0155154 0.00397974 0.000561939)
(0.0219813 -0.00117105 0.00215701)
(0.0244681 -0.00509812 0.00395395)
(0.0225994 -0.00720636 0.00567919)
(0.0166611 -0.0071761 0.00707009)
(0.00755711 -0.00501105 0.00791492)
(-0.00332811 -0.00103826 0.00808506)
(-0.0143396 0.00414022 0.0075546)
(-0.0238023 0.0097373 0.00640429)
(-0.0302756 0.0149 0.00480923)
(-0.0327723 0.0188397 0.00301225)
(-0.0309102 0.0209539 0.00128695)
(-0.0249713 0.0209195 -0.000104016)
(-0.0258336 0.0180317 1.44434e-06)
(-0.0149736 0.0135914 -0.000148239)
(-0.00385133 0.00793147 0.000422155)
(0.00583848 0.00191502 0.00162576)
(0.0126208 -0.00354295 0.00327934)
(0.0154647 -0.00761412 0.00513117)
(0.0139394 -0.00968149 0.00689935)
(0.00827858 -0.00943168 0.00831472)
(-0.000656043 -0.00690182 0.00916181)
(-0.0115059 -0.00247444 0.00931163)
(-0.0226214 0.00317923 0.00874135)
(-0.0323118 0.00919981 0.00753776)
(-0.0391017 0.0146698 0.0058841)
(-0.0419557 0.0187539 0.00403213)
(-0.0404371 0.0208275 0.00226384)
(-0.0347757 0.0205736 0.000848446)
(-0.0339928 0.0172755 0.00139659)
(-0.0231256 0.0123795 0.00133532)
(-0.0118326 0.00625485 0.00193818)
(-0.00183458 -0.000164582 0.00311337)
(0.0053466 -0.00590244 0.00468199)
(0.0086193 -0.0100878 0.00640529)
(0.0074875 -0.0120865 0.00802094)
(0.002125 -0.0115954 0.00928302)
(-0.00665195 -0.00868843 0.00999937)
(-0.0175088 -0.00380555 0.0100609)
(-0.028795 0.00231274 0.00945813)
(-0.0387936 0.00873637 0.00828287)
(-0.0459825 0.0144865 0.00671403)
(-0.0492655 0.018685 0.0049905)
(-0.0481405 0.02069 0.00337473)
(-0.0427774 0.0201947 0.00211272)
(-0.0390941 0.0165891 0.00302314)
(-0.0281786 0.0113058 0.00310485)
(-0.0166744 0.00479792 0.00372787)
(-0.0063344 -0.00194257 0.00479734)
(0.00126736 -0.00789038 0.00615047)
(0.00497531 -0.0121427 0.00758135)
(0.00422719 -0.0140551 0.0088722)
(-0.000861607 -0.0133377 0.00982653)
(-0.00951651 -0.0100988 0.010299)
(-0.0204216 -0.0048289 0.0102176)
(-0.0319189 0.0016727 0.00959466)
(-0.0422596 0.00841752 0.008525)
(-0.0498692 0.0143778 0.00717151)
(-0.0535876 0.0186434 0.00574031)
(-0.0528463 0.0205621 0.00444937)
(-0.0477568 0.0198404 0.00349524)
(-0.0403602 0.0160768 0.00463206)
(-0.0293625 0.0105338 0.00488954)
(-0.0176388 0.00378239 0.00551732)
(-0.00697531 -0.00314831 0.00641982)
(0.00100471 -0.00920413 0.00745972)
(0.00508809 -0.0134659 0.00847881)
(0.00465543 -0.0152876 0.00932202)
(-0.000225904 -0.0143933 0.00986098)
(-0.00881295 -0.0109182 0.0100136)
(-0.0198001 -0.00538858 0.00975647)
(-0.031517 0.00135663 0.00912871)
(-0.0421813 0.00829184 0.00822588)
(-0.0501692 0.0143603 0.00718549)
(-0.0542631 0.0186353 0.00616603)
(-0.0538373 0.0204633 0.0053228)
(-0.0489552 0.0195645 0.00478417)
(-0.0380068 0.0104677 0.0162241)
(-0.0270586 0.00490159 0.0167754)
(-0.0152373 -0.00183599 0.0173824)
(-0.00434406 -0.00871805 0.0179525)
(0.00396285 -0.0146979 0.0183992)
(0.00842057 -0.0188681 0.0186546)
(0.00835278 -0.0205965 0.0186798)
(0.0037713 -0.0196212 0.0184709)
(-0.00462655 -0.0160898 0.0180597)
(-0.0155641 -0.0105369 0.0175086)
(-0.0273784 -0.00380517 0.0169015)
(-0.0382724 0.00308191 0.0163308)
(-0.0465875 0.00907473 0.0158836)
(-0.0510559 0.0132581 0.015628)
(-0.0509951 0.0149923 0.015603)
(-0.0464128 0.0140121 0.0158123)
(-0.0321154 0.0106456 0.0177792)
(-0.0210574 0.00515834 0.0184936)
(-0.00908852 -0.00146566 0.0190738)
(0.00196763 -0.0082167 0.0194314)
(0.010428 -0.0140681 0.0195123)
(0.0150065 -0.018132 0.0193041)
(0.0150082 -0.0197923 0.0188387)
(0.0104344 -0.0187976 0.0181868)
(0.00198127 -0.0152982 0.0174475)
(-0.00906611 -0.00982397 0.0167334)
(-0.0210281 -0.00320552 0.0161529)
(-0.0320852 0.00355076 0.0157946)
(-0.0405538 0.00941516 0.0157132)
(-0.0451428 0.0134921 0.0159212)
(-0.0451514 0.015158 0.0163869)
(-0.0405767 0.014158 0.0170394)
(-0.023493 0.0109507 0.0187763)
(-0.0123421 0.00571157 0.019607)
(-0.000306749 -0.000628638 0.0201477)
(0.0107794 -0.00710356 0.0203162)
(0.0192289 -0.0127286 0.0200869)
(0.0237569 -0.0166502 0.0194949)
(0.0236765 -0.0182742 0.0186303)
(0.0190014 -0.0173544 0.0176247)
(0.010443 -0.0140296 0.0166311)
(-0.000697396 -0.00880336 0.0158005)
(-0.0127261 -0.00246841 0.0152594)
(-0.0238133 0.00401192 0.0150903)
(-0.0322708 0.00964988 0.015319)
(-0.0368093 0.0135844 0.0159108)
(-0.0367356 0.0152136 0.0167758)
(-0.0320594 0.0142883 0.017782)
(-0.013453 0.0113365 0.0190649)
(-0.00224024 0.00647716 0.0199475)
(0.00977047 0.000547714 0.0204421)
(0.0207492 -0.00554805 0.0204735)
(0.0290249 -0.0108833 0.020037)
(0.0333392 -0.0146485 0.0191993)
(0.0330376 -0.0162733 0.0180879)
(0.0281674 -0.0155113 0.0168718)
(0.0194699 -0.0124774 0.0157361)
(0.00826737 -0.00763059 0.0148535)
(-0.00373682 -0.00170614 0.0143585)
(-0.0147166 0.00439512 0.0143264)
(-0.0230002 0.00974315 0.0147623)
(-0.0273247 0.013521 0.0156)
(-0.0270296 0.0151507 0.0167119)
(-0.0221585 0.0143832 0.0179286)
(-0.00352347 0.0117444 0.018602)
(0.00771068 0.00733855 0.0194642)
(0.0196093 0.00188429 0.0199132)
(0.0303595 -0.00378701 0.0198806)
(0.038325 -0.00881315 0.0193715)
(0.0422947 -0.0124317 0.0184636)
(0.0416664 -0.0140944 0.0172951)
(0.0365373 -0.0135491 0.0160437)
(0.0276879 -0.0108778 0.0148998)
(0.0164638 -0.0064843 0.0140375)
(0.00457156 -0.00103484 0.013588)
(-0.00617968 0.00464199 0.01362)
(-0.0141529 0.00968074 0.0141286)
(-0.0181327 0.0133116 0.0150366)
(-0.0175108 0.0149791 0.0162057)
(-0.0123807 0.0144283 0.0174577)
(0.00478496 0.0121121 0.0174581)
(0.0159968 0.00816451 0.0182309)
(0.0277129 0.00317752 0.0186416)
(0.0381482 -0.00208864 0.0186278)
(0.0457144 -0.00683344 0.0181917)
(0.0492611 -0.0103372 0.0173999)
(0.0482506 -0.0120692 0.0163727)
(0.042838 -0.0117666 0.0152665)
(0.0338472 -0.0094745 0.0142495)
(0.0226452 -0.00553902 0.0134765)
(0.0109354 -0.000556719 0.0130653)
(0.000499072 0.00471491 0.0130785)
(-0.00707473 0.00947212 0.0135143)
(-0.0106313 0.012988 0.0143063)
(-0.00962706 0.0147246 0.015334)
(-0.00421352 0.0144166 0.0164408)
(0.0102087 0.0123835 0.0158062)
(0.0213577 0.00882914 0.0164342)
(0.0328487 0.00423039 0.01682)
(0.0429307 -0.000711609 0.016905)
(0.0500692 -0.00524563 0.0166765)
(0.053179 -0.00868405 0.0161691)
(0.0517888 -0.010506 0.0154602)
(0.0461114 -0.0104351 0.0146575)
(0.0370112 -0.00848104 0.0138831)
(0.0258719 -0.00493861 0.0132549)
(0.0143872 -0.000344536 0.0128686)
(0.00430426 0.00460278 0.0127831)
(-0.00284175 0.00914902 0.0130115)
(-0.00596126 0.0125994 0.0135191)
(-0.00457725 0.014426 0.0142285)
(0.00110095 0.0143498 0.0150317)
(0.0119226 0.0125173 0.0138966)
(0.0229781 0.00923118 0.0143463)
(0.0342354 0.00488253 0.0147243)
(0.0439795 0.000134414 0.0149731)
(0.0507271 -0.00429142 0.0150549)
(0.0534525 -0.0077238 0.0149572)
(0.0517429 -0.00964276 0.014695)
(0.0458599 -0.00975719 0.0143079)
(0.036699 -0.00804855 0.013855)
(0.0256533 -0.00477437 0.013405)
(0.0144022 -0.000430513 0.0130266)
(0.00465724 0.00432274 0.0127775)
(-0.00209775 0.00876063 0.0126957)
(-0.00483282 0.0122049 0.0127936)
(-0.00312948 0.0141287 0.0130562)
(0.0027543 0.014238 0.0134436)
(0.00966551 0.012493 0.012019)
(0.0206107 0.00930941 0.0122841)
(0.0316617 0.00503469 0.0126724)
(0.0411347 0.000320666 0.0131249)
(0.0475876 -0.00411605 0.0135727)
(0.0500397 -0.00760259 0.0139476)
(0.0481197 -0.00961078 0.0141925)
(0.0421213 -0.00983596 0.01427)
(0.0329577 -0.00824278 0.0141683)
(0.0220222 -0.00507121 0.0139029)
(0.0109775 -0.000801487 0.0135143)
(0.00150387 0.00391745 0.0130616)
(-0.0049564 0.00836611 0.0126139)
(-0.00741818 0.0118646 0.0122393)
(-0.00550457 0.0138778 0.0119947)
(0.000494481 0.0140981 0.0119174)
(0.00377987 0.0123144 0.0104593)
(0.0146151 0.00905202 0.0105615)
(0.0255183 0.00466379 0.0109767)
(0.0348282 -0.000181115 0.0116418)
(0.0411276 -0.00474611 0.0124554)
(0.043459 -0.0083388 0.0132937)
(0.0414696 -0.0104149 0.0140291)
(0.0354638 -0.0106594 0.0145495)
(0.0263556 -0.00903413 0.0147756)
(0.0155302 -0.00578393 0.0146731)
(0.00463349 -0.00140096 0.0142577)
(-0.00467704 0.00344865 0.0135925)
(-0.0109838 0.00802556 0.012779)
(-0.013325 0.0116304 0.0119409)
(-0.0113421 0.0137117 0.0112058)
(-0.00533565 0.0139516 0.0106855)
(-0.00483953 0.0120088 0.00945589)
(0.00590272 0.00849833 0.0094417)
(0.0167394 0.00382642 0.00989624)
(0.0260192 -0.00129444 0.0107504)
(0.0323295 -0.00608563 0.011874)
(0.0347113 -0.00982032 0.0130961)
(0.032804 -0.0119326 0.0142306)
(0.0268996 -0.0121022 0.0151047)
(0.0178968 -0.0103022 0.0155853)
(0.00716447 -0.00680406 0.0155993)
(-0.00366551 -0.0021377 0.0151447)
(-0.0129459 0.0029877 0.0142905)
(-0.0192636 0.00779086 0.013167)
(-0.0216554 0.0115379 0.011945)
(-0.0197548 0.0136558 0.0108107)
(-0.0138498 0.0138208 0.00993664)
(-0.0148811 0.011623 0.009163)
(-0.00420063 0.00773274 0.00909658)
(0.00666074 0.00265014 0.00959692)
(0.016048 -0.00284978 0.0105879)
(0.0225321 -0.00793067 0.0119186)
(0.0251276 -0.0118216 0.0133864)
(0.0234415 -0.0139331 0.0147679)
(0.017732 -0.0139448 0.0158527)
(0.00886819 -0.011854 0.0164757)
(-0.00180212 -0.00797641 0.016542)
(-0.0126567 -0.00289963 0.0160416)
(-0.0220445 0.00260473 0.0150507)
(-0.0285361 0.00769772 0.0137201)
(-0.0311418 0.0116014 0.0122523)
(-0.0294625 0.0137186 0.0108709)
(-0.0237525 0.0137258 0.00978606)
(-0.0248158 0.0112155 0.00962611)
(-0.0141565 0.0068718 0.00957968)
(-0.00318286 0.00131402 0.0101254)
(0.00643302 -0.00461038 0.0111801)
(0.0132273 -0.0100004 0.0125834)
(0.0161673 -0.0140382 0.0141214)
(0.0148077 -0.0161117 0.0155602)
(0.009357 -0.0159067 0.0166807)
(0.000644839 -0.0134534 0.0173122)
(-0.0100041 -0.00912259 0.0173586)
(-0.0209708 -0.00357083 0.0168129)
(-0.0305872 0.00235799 0.0157582)
(-0.0373892 0.0077603 0.0143549)
(-0.0403396 0.011811 0.0128168)
(-0.0389869 0.0138906 0.011378)
(-0.0335357 0.0136811 0.0102576)
(-0.03313 0.0108485 0.0107747)
(-0.0224481 0.00604648 0.0108175)
(-0.0112918 2.13571e-05 0.0114013)
(-0.00136093 -0.00630831 0.0124371)
(0.00583271 -0.0119799 0.0137674)
(0.00919566 -0.0161325 0.0151895)
(0.00821823 -0.018137 0.0164871)
(0.00305074 -0.0176894 0.0174626)
(-0.00552022 -0.014857 0.0179674)
(-0.0161915 -0.0100681 0.0179247)
(-0.0273408 -0.00404913 0.0173409)
(-0.0372723 0.00228502 0.0163049)
(-0.0444738 0.00796903 0.0149745)
(-0.0478473 0.0121349 0.0135522)
(-0.0468769 0.0141455 0.0122547)
(-0.0417088 0.0136934 0.0112793)
(-0.0385567 0.0105775 0.0124328)
(-0.027812 0.0053823 0.0126206)
(-0.0164304 -0.00103116 0.0132294)
(-0.00614617 -0.00768516 0.0141666)
(0.00147516 -0.0135677 0.0152894)
(0.00527506 -0.0177859 0.0164271)
(0.00467732 -0.0197005 0.0174065)
(-0.000225502 -0.0190214 0.0180784)
(-0.00868715 -0.0158509 0.0183405)
(-0.0194212 -0.010669 0.0181529)
(-0.0307957 -0.00426167 0.0175441)
(-0.0410806 0.00239694 0.0166067)
(-0.0487099 0.00829212 0.0154835)
(-0.0525205 0.0125236 0.0143456)
(-0.0519298 0.0144444 0.0133663)
(-0.0470263 0.0137607 0.0126946)
(-0.0402691 0.0104438 0.0143467)
(-0.0294309 0.00498027 0.0147131)
(-0.0178158 -0.00168338 0.0153301)
(-0.0071936 -0.00853136 0.0161037)
(0.000818661 -0.0145222 0.0169163)
(0.00500299 -0.0187465 0.0176443)
(0.00472469 -0.0205642 0.0181768)
(2.76481e-05 -0.0196998 0.0184328)
(-0.00837321 -0.0162839 0.0183733)
(-0.0192007 -0.0108337 0.0180071)
(-0.0308087 -0.00417603 0.01739)
(-0.0414316 0.00267675 0.016616)
(-0.049452 0.00868038 0.015803)
(-0.0536471 0.0129181 0.0150748)
(-0.0533758 0.0147418 0.0145424)
(-0.048678 0.0138726 0.0142867)
(-0.0387636 0.00535258 0.0240765)
(-0.0278339 -0.000102427 0.0246742)
(-0.0159741 -0.00669456 0.0252016)
(-0.00499149 -0.013419 0.0255784)
(0.00344228 -0.0192532 0.0257475)
(0.00804504 -0.0233117 0.0256831)
(0.00811844 -0.0249797 0.0253952)
(0.00365283 -0.0240044 0.0249274)
(-0.00467212 -0.0205331 0.0243508)
(-0.0155909 -0.0150915 0.0237532)
(-0.0274435 -0.00850507 0.0232256)
(-0.0384271 -0.00177528 0.0228482)
(-0.0468692 0.00407213 0.0226787)
(-0.051483 0.00814408 0.022743)
(-0.0515635 0.00981774 0.0230312)
(-0.047097 0.00883709 0.0234995)
(-0.0331682 0.0056164 0.0261266)
(-0.0221253 0.000226581 0.0268884)
(-0.0101079 -0.00626424 0.0273869)
(0.00105288 -0.0128667 0.0275463)
(0.00965822 -0.0185769 0.0273425)
(0.0143998 -0.0225283 0.0268066)
(0.0145582 -0.0241222 0.0260202)
(0.0101107 -0.0231173 0.0251029)
(0.00173429 -0.0196651 0.0241943)
(-0.00929771 -0.0142885 0.0234326)
(-0.0213081 -0.00780312 0.0229337)
(-0.0324699 -0.00119508 0.0227737)
(-0.0410837 0.00452836 0.022977)
(-0.0458362 0.00849299 0.0235128)
(-0.0460015 0.0100924 0.0242996)
(-0.041553 0.00908182 0.0252175)
(-0.0247436 0.00579542 0.0277264)
(-0.0136098 0.000641847 0.0286059)
(-0.00152016 -0.00557505 0.0290602)
(0.00968314 -0.0119077 0.0290201)
(0.0182948 -0.0173933 0.0284919)
(0.0230055 -0.0211994 0.0275563)
(0.0231005 -0.0227496 0.0263555)
(0.0185668 -0.0218089 0.0250723)
(0.0100943 -0.0185193 0.0239019)
(-0.00102885 -0.0133787 0.0230224)
(-0.0131116 -0.00716694 0.0225677)
(-0.024316 -0.000828568 0.0226071)
(-0.032936 0.00467021 0.0231348)
(-0.0376575 0.00848938 0.0240705)
(-0.0377593 0.0100447 0.0252717)
(-0.0332245 0.00909827 0.0265556)
(-0.0147732 0.00586247 0.0286339)
(-0.00358426 0.00108024 0.0295667)
(0.00848118 -0.00473187 0.029968)
(0.0195849 -0.010688 0.0297768)
(0.0280366 -0.0158825 0.0290223)
(0.0325515 -0.0195276 0.0278194)
(0.0324444 -0.0210709 0.0263514)
(0.0277331 -0.0202787 0.0248415)
(0.0191347 -0.0172703 0.0235195)
(0.00795627 -0.0125007 0.0225865)
(-0.00410252 -0.00669349 0.0221847)
(-0.0152073 -0.000731582 0.0223753)
(-0.0236673 0.00447608 0.0231294)
(-0.0281926 0.00813384 0.0243323)
(-0.0280922 0.00968207 0.0258009)
(-0.0233798 0.00888403 0.0273115)
(-0.00477427 0.00580736 0.0287116)
(0.00642527 0.00147501 0.0296255)
(0.0183738 -0.00386308 0.0299733)
(0.0292509 -0.0093932 0.0297023)
(0.0374009 -0.0142747 0.0288539)
(0.0415847 -0.0177673 0.0275572)
(0.0411676 -0.0193418 0.0260097)
(0.0362146 -0.0187597 0.0244468)
(0.0274794 -0.0161083 0.0231063)
(0.0162902 -0.0117883 0.0221923)
(0.00434812 -0.00645491 0.0218438)
(-0.00653008 -0.000918945 0.0221142)
(-0.0146881 0.0039755 0.0229623)
(-0.0188822 0.00748048 0.0242592)
(-0.0184717 0.0090597 0.0258073)
(-0.0135175 0.00847174 0.0273708)
(0.00373192 0.00563839 0.0279479)