/*--------------------------------*- C++ -*----------------------------------*\
| =========                 |                                                 |
| \\      /  F ield         | OpenFOAM: The Open Source CFD Toolbox           |
|  \\    /   O peration     | Version:  dev                                   |
|   \\  /    A nd           | Web:      www.OpenFOAM.org                      |
|    \\/     M anipulation  |                                                 |
\*---------------------------------------------------------------------------*/
FoamFile
{
    version     2.0;
    format      ascii;
    class       volScalarField;
    location    "5";
    object      alphat.gas;
}
// * * * * * * * * * * * * * * * * * * * * * * * * * * * * * * * * * * * * * //

dimensions      [1 -1 -1 0 0 0 0];

internalField   nonuniform List<scalar>
1875
(
3.28970404e-05
7.47455994e-05
0.000100960341
0.000115723925
0.000119293672
0.000112626917
9.68161763e-05
7.28064561e-05
4.06095467e-05
7.99274239e-06
5.79803079e-07
4.76668732e-07
4.7633382e-07
4.76673332e-07
5.80190819e-07
7.99904855e-06
4.06184772e-05
7.28114304e-05
9.68195079e-05
0.000112629634
0.000119296061
0.000115725716
0.000100960665
7.47362552e-05
3.27323e-05
3.28277161e-05
7.45887374e-05
0.000100749542
0.000115483835
0.000119048295
0.000112398157
9.66235093e-05
7.2667097e-05
4.05430166e-05
7.9858249e-06
5.78913196e-07
4.75663289e-07
4.75328143e-07
4.7566789e-07
5.79307113e-07
7.99214243e-06
4.05517894e-05
7.26716932e-05
9.66263036e-05
0.000112400222
0.000119049971
0.000115484906
0.000100749208
7.45796321e-05
3.2662318e-05
3.2758329e-05
7.44318572e-05
0.00010053887
0.000115244133
0.000118803663
0.000112170579
9.64325241e-05
7.25299402e-05
4.04795314e-05
7.98062062e-06
5.78081766e-07
4.74656299e-07
4.74320733e-07
4.74660898e-07
5.78482334e-07
7.98697111e-06
4.04883161e-05
7.25344987e-05
9.6435247e-05
0.000112172552
0.000118805235
0.000115245099
0.000100538443
7.44226577e-05
3.25929085e-05
3.26888751e-05
7.42748691e-05
0.000100328051
0.000115004258
0.000118558846
0.000111942811
9.6241345e-05
7.23925816e-05
4.04157718e-05
7.97536006e-06
5.77249565e-07
4.73648208e-07
4.73312219e-07
4.73652818e-07
5.77656399e-07
7.98174682e-06
4.04245795e-05
7.23971252e-05
9.62440309e-05
0.000111944735
0.000118560364
0.000115005172
0.000100327577
7.42656607e-05
3.25234222e-05
3.26193547e-05
7.41177712e-05
0.000100117079
0.000114764203
0.00011831383
0.000111714832
9.60499422e-05
7.22549729e-05
4.03516952e-05
7.97001509e-06
5.76415717e-07
4.72639087e-07
4.72302679e-07
4.72643722e-07
5.76828352e-07
7.97643865e-06
4.03605294e-05
7.22595113e-05
9.60526048e-05
0.000111716726
0.000118315317
0.000114765087
0.000100116581
7.41085404e-05
3.24538802e-05
3.25497681e-05
7.39605644e-05
9.99059567e-05
0.000114523969
0.000118068621
0.00011148665
9.58583249e-05
7.21171212e-05
4.02873285e-05
7.96459529e-06
5.75580499e-07
4.71628958e-07
4.71292147e-07
4.71633621e-07
5.75998496e-07
7.97105544e-06
4.02961914e-05
7.21216595e-05
9.58609736e-05
0.000111488524
0.000118070089
0.000114524837
9.99054452e-05
7.39513315e-05
3.23842769e-05
3.24801163e-05
7.38032466e-05
9.9694682e-05
0.000114283557
0.000117823217
0.000111258263
9.56664911e-05
7.1979025e-05
4.02226883e-05
7.95910563e-06
5.74744101e-07
4.70617835e-07
4.70280615e-07
4.70622531e-07
5.7516706e-07
7.96560166e-06
4.02315806e-05
7.19835663e-05
9.56691296e-05
0.000111260125
0.000117824673
0.000114284415
9.96941635e-05
7.37940163e-05
3.2314611e-05
3.24103997e-05
7.36458157e-05
9.94832535e-05
0.000114042961
0.000117577613
0.000111029665
9.54744308e-05
7.18406726e-05
4.01577768e-05
7.95354401e-06
5.7390643e-07
4.6960572e-07
4.69268092e-07
4.69610444e-07
5.74333999e-07
7.960075e-06
4.01666984e-05
7.18452189e-05
9.54770614e-05
0.000111031518
0.000117579062
0.000114043813
9.94827315e-05
7.36365894e-05
3.22448818e-05
3.23406185e-05
7.34882689e-05
9.92716675e-05
0.000113802176
0.0001173318
0.000110800843
9.5282127e-05
7.17020524e-05
4.00925882e-05
7.94790393e-06
5.73067234e-07
4.68592614e-07
4.68254579e-07
4.68597362e-07
5.73499091e-07
7.95446879e-06
4.01015387e-05
7.17066044e-05
9.52847515e-05
0.000110802689
0.000117333242
0.000113803024
9.92711426e-05
7.34790473e-05
3.21750887e-05
3.22707728e-05
7.33306037e-05
9.90599195e-05
0.000113561197
0.00011708577
0.000110571785
9.50895613e-05
7.15631454e-05
4.00271136e-05
7.94217804e-06
5.72226208e-07
4.67578508e-07
4.67240067e-07
4.67583285e-07
5.72662073e-07
7.94877566e-06
4.00360924e-05
7.15677034e-05
9.50921824e-05
0.000110573624
0.000117087206
0.000113562041
9.90593928e-05
7.33213863e-05
3.21052317e-05
3.22008629e-05
7.31728172e-05
9.8848008e-05
0.000113320018
0.000116839514
0.000110342479
9.48967224e-05
7.1423942e-05
3.99613478e-05
7.93636051e-06
5.71383109e-07
4.66563412e-07
4.66224571e-07
4.66568213e-07
5.7182272e-07
7.94298963e-06
3.99703536e-05
7.14285045e-05
9.48993378e-05
0.000110344311
0.000116840944
0.000113320858
9.88474783e-05
7.31636035e-05
3.20353105e-05
3.21308886e-05
7.30149074e-05
9.86359289e-05
0.000113078636
0.000116593027
0.000110112916
9.47035956e-05
7.12844344e-05
3.98952881e-05
7.93044767e-06
5.70537752e-07
4.6554732e-07
4.65208081e-07
4.65552145e-07
5.70980877e-07
7.9371071e-06
3.99043203e-05
7.12890009e-05
9.47062073e-05
0.000110114742
0.000116594452
0.000113079471
9.8635397e-05
7.30056961e-05
3.19653251e-05
3.206085e-05
7.28568713e-05
9.84236808e-05
0.000112837046
0.000116346302
0.000109883088
9.45101738e-05
7.1144616e-05
3.98289357e-05
7.92443758e-06
5.69690024e-07
4.64530233e-07
4.641906e-07
4.64535079e-07
5.70136455e-07
7.93112617e-06
3.98379929e-05
7.11491863e-05
9.45127809e-05
0.000109884906
0.000116347719
0.000112837876
9.84231448e-05
7.28476619e-05
3.18952753e-05
3.19907471e-05
7.26987066e-05
9.82112594e-05
0.000112595245
0.000116099333
0.000109652984
9.43164477e-05
7.10044827e-05
3.97622926e-05
7.91832949e-06
5.68839832e-07
4.63512155e-07
4.63172126e-07
4.63517018e-07
5.69289386e-07
7.92504606e-06
3.97713736e-05
7.10090573e-05
9.43190489e-05
0.000109654796
0.000116100744
0.000112596069
9.82107184e-05
7.26894979e-05
3.18251611e-05
3.19205799e-05
7.25404109e-05
9.79986628e-05
0.000112353228
0.000115852115
0.000109422601
9.41224104e-05
7.08640327e-05
3.96953614e-05
7.91212312e-06
5.6798712e-07
4.62493082e-07
4.62152664e-07
4.62497962e-07
5.68439624e-07
7.91886653e-06
3.9704465e-05
7.08686097e-05
9.41250053e-05
0.000109424404
0.000115853517
0.000112354045
9.79981163e-05
7.25312012e-05
3.17549825e-05
3.18503483e-05
7.23819822e-05
9.77858864e-05
0.000112110992
0.00011560464
0.000109191928
9.3928055e-05
7.07232646e-05
3.96281446e-05
7.90581826e-06
5.67131829e-07
4.61473015e-07
4.61132215e-07
4.61477917e-07
5.67587138e-07
7.91258747e-06
3.96372696e-05
7.07278448e-05
9.39306445e-05
0.000109193722
0.000115606033
0.000112111801
9.77853334e-05
7.23727701e-05
3.16847393e-05
3.17800524e-05
7.22234176e-05
9.7572928e-05
0.000111868531
0.000115356902
0.000108960957
9.37333744e-05
7.05821756e-05
3.95606438e-05
7.89941459e-06
5.66273895e-07
4.60451968e-07
4.60110778e-07
4.60456876e-07
5.66731877e-07
7.90620853e-06
3.95697892e-05
7.05867568e-05
9.37359574e-05
0.000108962743
0.000115358286
0.00011186933
9.75723663e-05
7.22142025e-05
3.16144318e-05
3.17096922e-05
7.20647145e-05
9.73597831e-05
0.00011162584
0.000115108896
0.000108729682
9.35383624e-05
7.04407624e-05
3.94928608e-05
7.89291158e-06
5.65413258e-07
4.59429923e-07
4.59088358e-07
4.59434849e-07
5.65873782e-07
7.89972922e-06
3.95020251e-05
7.04453453e-05
9.35409393e-05
0.000108731459
0.000115110269
0.000111626628
9.73592126e-05
7.20554945e-05
3.15440597e-05
3.16392677e-05
7.19058702e-05
9.71464479e-05
0.000111382913
0.000114860613
0.000108498095
9.33430133e-05
7.02990252e-05
3.94247959e-05
7.8863086e-06
5.6454985e-07
4.584069e-07
4.58064953e-07
4.58411835e-07
5.65012802e-07
7.89314896e-06
3.94339784e-05
7.03036091e-05
9.3345583e-05
0.000108499861
0.000114861975
0.000111383691
9.71458674e-05
7.18966451e-05
3.14736232e-05
3.15687791e-05
7.17468834e-05
9.69329184e-05
0.000111139746
0.000114612046
0.000108266187
9.31473226e-05
7.01569615e-05
3.93564506e-05
7.87960493e-06
5.63683595e-07
4.57382888e-07
4.57040573e-07
4.57387839e-07
5.64148875e-07
7.88646702e-06
3.93656494e-05
7.01615457e-05
9.31498848e-05
0.000108267942
0.000114613396
0.000111140511
9.69323266e-05
7.17376512e-05
3.14031224e-05
3.14982263e-05
7.15877505e-05
9.67191908e-05
0.000110896333
0.000114363189
0.000108033953
9.29512855e-05
7.00145702e-05
3.92878247e-05
7.87279991e-06
5.62814435e-07
4.56357903e-07
4.56015223e-07
4.56362861e-07
5.63281946e-07
7.87968279e-06
3.92970392e-05
7.00191537e-05
9.29538396e-05
0.000108035696
0.000114364527
0.000110897085
9.67185864e-05
7.15785101e-05
3.13325572e-05
3.14276096e-05
7.14284697e-05
9.65052607e-05
0.000110652667
0.000114114037
0.000107801386
9.27548961e-05
6.98718501e-05
3.9218919e-05
7.86589287e-06
5.61942301e-07
4.55331945e-07
4.54988897e-07
4.55336903e-07
5.6241195e-07
7.87279559e-06
3.92281478e-05
6.98764311e-05
9.2757443e-05
0.000107803117
0.00011411536
0.000110653404
9.65046429e-05
7.14192204e-05
3.12619279e-05
3.13569292e-05
7.12690393e-05
9.62911242e-05
0.000110408744
0.00011386458
0.000107568479
9.25581532e-05
6.97288001e-05
3.91497342e-05
7.85888331e-06
5.61067141e-07
4.54305013e-07
4.53961611e-07
4.54309977e-07
5.61538847e-07
7.865805e-06
3.91589762e-05
6.97333802e-05
9.25606901e-05
0.000107570198
0.000113865887
0.000110409465
9.62904911e-05
7.12597793e-05
3.11912346e-05
3.1286185e-05
7.11094561e-05
9.6076777e-05
0.000110164558
0.000113614814
0.000107335227
9.23610528e-05
6.95854214e-05
3.90802715e-05
7.85177085e-06
5.60188905e-07
4.53277114e-07
4.52933362e-07
4.53282088e-07
5.60662588e-07
7.8587106e-06
3.90895255e-05
6.95899986e-05
9.23635805e-05
0.000107336932
0.000113616105
0.000110165263
9.60761282e-05
7.11001848e-05
3.11204774e-05
3.12153774e-05
7.09497183e-05
9.58622149e-05
0.000109920104
0.000113364732
0.000107101625
9.21635924e-05
6.9441713e-05
3.90105314e-05
7.84455531e-06
5.59307551e-07
4.52248262e-07
4.51904158e-07
4.52253233e-07
5.59783138e-07
7.85151224e-06
3.90197964e-05
6.94462879e-05
9.21661107e-05
0.000107103317
0.000113366007
0.000109920791
9.58615491e-05
7.09404341e-05
3.10496564e-05
3.11445066e-05
7.07898232e-05
9.56474334e-05
0.000109675376
0.00011311433
0.00010686767
9.19657712e-05
6.92976772e-05
3.89405161e-05
7.83723653e-06
5.5842304e-07
4.51218446e-07
4.50874001e-07
4.51223426e-07
5.58900464e-07
7.8442098e-06
3.89497907e-05
6.93022491e-05
9.1968279e-05
0.000106869347
0.000113115586
0.000109676043
9.56467497e-05
7.07805252e-05
3.09787721e-05
3.10735727e-05
7.06297697e-05
9.54324294e-05
0.000109430368
0.0001128636
0.000106633357
9.17675876e-05
6.91533132e-05
3.88702261e-05
7.82981457e-06
5.57535347e-07
4.50187689e-07
4.4984291e-07
4.50192671e-07
5.5801454e-07
7.83680338e-06
3.88795094e-05
6.91578812e-05
9.1770084e-05
0.000106635017
0.000112864838
0.000109431016
9.54317263e-05
7.06204566e-05
3.09078245e-05
3.10025762e-05
7.04695546e-05
9.52171983e-05
0.000109185078
0.000112612541
0.000106398682
9.15690396e-05
6.90086239e-05
3.87996633e-05
7.82228948e-06
5.56644443e-07
4.49155991e-07
4.48810877e-07
4.49160974e-07
5.57125345e-07
7.82929304e-06
3.88089542e-05
6.90131875e-05
9.15715254e-05
0.000106400326
0.000112613759
0.000109185704
9.52164743e-05
7.04602255e-05
3.08368139e-05
3.09315172e-05
7.0309177e-05
9.50017357e-05
0.000108939497
0.000112361144
0.000106163643
9.13701284e-05
6.88636102e-05
3.87288294e-05
7.81466136e-06
5.55750307e-07
4.48123355e-07
4.4777792e-07
4.48128344e-07
5.56232861e-07
7.8216789e-06
3.87381268e-05
6.88681683e-05
9.13726019e-05
0.000106165269
0.000112362342
0.000108940101
9.50009898e-05
7.02998299e-05
3.07657407e-05
3.08603961e-05
7.01486339e-05
9.47860379e-05
0.000108693622
0.000112109408
0.000105928236
9.1170854e-05
6.87182731e-05
3.86577257e-05
7.80693035e-06
5.54852915e-07
4.47089797e-07
4.4674404e-07
4.47094781e-07
5.55337063e-07
7.81396107e-06
3.86670287e-05
6.87228251e-05
9.11733138e-05
0.000105929844
0.000112110583
0.000108694202
9.47852692e-05
7.01392682e-05
3.06946051e-05
3.07892131e-05
6.99879235e-05
9.45701009e-05
0.000108447449
0.000111857325
0.000105692459
9.09712143e-05
6.85726148e-05
3.85863533e-05
7.79909644e-06
5.53952247e-07
4.46055322e-07
4.45709255e-07
4.46060304e-07
5.54437935e-07
7.80613963e-06
3.8595661e-05
6.85771598e-05
9.09736607e-05
0.000105694048
0.000111858478
0.000108448004
9.45693083e-05
6.99785384e-05
3.06234074e-05
3.07179689e-05
6.98270438e-05
9.43539214e-05
0.000108200973
0.000111604895
0.000105456309
9.077121e-05
6.84266359e-05
3.85147136e-05
7.7911596e-06
5.53048272e-07
4.45019939e-07
4.4467356e-07
4.45024919e-07
5.53535456e-07
7.79821452e-06
3.85240248e-05
6.84311746e-05
9.07736423e-05
0.000105457878
0.000111606023
0.000108201501
9.43531028e-05
6.98176381e-05
3.05521481e-05
3.06466635e-05
6.96659937e-05
9.41374948e-05
0.000107954189
0.000111352112
0.000105219786
9.05708422e-05
6.82803384e-05
3.84428073e-05
7.78311959e-06
5.52140972e-07
4.43983652e-07
4.4363698e-07
4.43988636e-07
5.52629599e-07
7.79018556e-06
3.84521209e-05
6.828487e-05
9.05732607e-05
0.000105221334
0.000111353215
0.000107954689
9.41366497e-05
6.96565655e-05
3.04808274e-05
3.05752975e-05
6.95047716e-05
9.39208188e-05
0.000107707092
0.000111098973
0.000104982886
9.03701108e-05
6.81337234e-05
3.83706353e-05
7.77497621e-06
5.51230312e-07
4.42946481e-07
4.42599509e-07
4.42951456e-07
5.51720339e-07
7.78205255e-06
3.83799505e-05
6.81382471e-05
9.03725131e-05
0.000104984412
0.00011110005
0.000107707565
9.39199459e-05
6.94953202e-05
3.04094459e-05
3.05038714e-05
6.93433753e-05
9.37038892e-05
0.000107459681
0.000110845475
0.000104745609
9.01690165e-05
6.79867923e-05
3.82981977e-05
7.76672907e-06
5.50316261e-07
4.41908429e-07
4.41561172e-07
4.41913397e-07
5.5080764e-07
7.77381506e-06
3.83075137e-05
6.79913074e-05
9.01714017e-05
0.000104747113
0.000110846524
0.000107460124
9.37029872e-05
6.93338997e-05
3.03380039e-05
3.04323858e-05
6.91818043e-05
9.34867035e-05
0.000107211951
0.000110591615
0.000104507954
8.99675585e-05
6.78395474e-05
3.82254953e-05
7.75837777e-06
5.49398785e-07
4.4086951e-07
4.40521969e-07
4.40874475e-07
5.49891476e-07
7.76547281e-06
3.82348109e-05
6.78440518e-05
8.99699274e-05
0.000104509434
0.000110592637
0.000107212363
9.34857719e-05
6.91723028e-05
3.02665021e-05
3.0360841e-05
6.9020057e-05
9.32692599e-05
0.0001069639
0.000110337393
0.00010426992
8.97657388e-05
6.76919879e-05
3.81525285e-05
7.74992183e-06
5.48477854e-07
4.39829734e-07
4.39481918e-07
4.39834687e-07
5.48971811e-07
7.7570253e-06
3.81618429e-05
6.76964835e-05
8.97680902e-05
0.000104271376
0.000110338383
0.000106964278
9.32682966e-05
6.90105292e-05
3.01949409e-05
3.02892376e-05
6.88581335e-05
9.30515556e-05
0.000106715524
0.000110082805
0.000104031507
8.95635591e-05
6.75441181e-05
3.80792976e-05
7.74136092e-06
5.47553428e-07
4.38789112e-07
4.3844103e-07
4.38794059e-07
5.4804862e-07
7.74847216e-06
3.808861e-05
6.75486028e-05
8.95658927e-05
0.000104032937
0.000110083764
0.000106715868
9.30505591e-05
6.88485777e-05
3.01233208e-05
3.02175765e-05
6.86960322e-05
9.28335886e-05
0.000106466822
0.00010982785
0.000103792715
8.93610206e-05
6.73959367e-05
3.80058034e-05
7.73269466e-06
5.46625492e-07
4.37747658e-07
4.37399315e-07
4.377526e-07
5.47121871e-07
7.73981303e-06
3.80151129e-05
6.74004111e-05
8.93633349e-05
0.000103794119
0.000109828778
0.000106467132
9.28325579e-05
6.86864478e-05
3.00516426e-05
3.0145858e-05
6.85337546e-05
9.26153577e-05
0.000106217792
0.000109572528
0.000103553546
8.91581247e-05
6.72474484e-05
3.79320465e-05
7.72392278e-06
5.4569401e-07
4.36705383e-07
4.36356792e-07
4.36710316e-07
5.46191541e-07
7.73104773e-06
3.79413522e-05
6.72519103e-05
8.91604196e-05
0.000103554922
0.000109573423
0.000106218066
9.26142916e-05
6.85241396e-05
2.99799069e-05
3.00740829e-05
6.83712988e-05
9.23968622e-05
0.000105968434
0.00010931684
0.000103313999
8.89548728e-05
6.70986549e-05
3.78580279e-05
7.71504511e-06
5.44758966e-07
4.35662309e-07
4.35313468e-07
4.35667228e-07
5.45257614e-07
7.72217602e-06
3.7867329e-05
6.71031038e-05
8.89571475e-05
0.000103315347
0.000109317701
0.000105968669
9.23957597e-05
6.83616531e-05
2.99081142e-05
3.0002252e-05
6.82086663e-05
9.21781017e-05
0.000105718746
0.000109060784
0.000103074078
8.87512696e-05
6.69495566e-05
3.77837488e-05
7.70606158e-06
5.43820347e-07
4.34618436e-07
4.34269358e-07
4.34623347e-07
5.44320074e-07
7.71319792e-06
3.77930443e-05
6.69539928e-05
8.87535226e-05
0.000103075397
0.000109061609
0.000105718943
9.2176961e-05
6.81989883e-05
2.98362654e-05
2.9930366e-05
6.80458579e-05
9.19590754e-05
0.00010546873
0.000108804364
0.000102833784
8.85473174e-05
6.6800158e-05
3.77092102e-05
7.69697223e-06
5.42878137e-07
4.33573788e-07
4.33224478e-07
4.33578691e-07
5.43378907e-07
7.70411342e-06
3.77184995e-05
6.68045797e-05
8.8549548e-05
0.000102835073
0.000108805152
0.000105468887
9.19578953e-05
6.80361458e-05
2.97643612e-05
2.98584257e-05
6.78828739e-05
9.17397843e-05
0.000105218384
0.000108547578
0.00010259312
8.83430178e-05
6.66504603e-05
3.76344137e-05
7.68777717e-06
5.41932334e-07
4.32528381e-07
4.3217885e-07
4.32533272e-07
5.42434111e-07
7.69492264e-06
3.7643696e-05
6.66548678e-05
8.8345225e-05
0.000102594377
0.000108548329
0.0001052185
9.17385632e-05
6.78731273e-05
2.96924024e-05
2.9786432e-05
6.7719716e-05
9.15202282e-05
0.000104967712
0.00010829043
0.000102352087
8.81383738e-05
6.65004675e-05
3.75593607e-05
7.67847651e-06
5.40982926e-07
4.31482228e-07
4.31132475e-07
4.31487103e-07
5.4148568e-07
7.68562573e-06
3.7568635e-05
6.65048602e-05
8.8140558e-05
0.000102353313
0.000108291142
0.000104967784
9.15189656e-05
6.77099332e-05
2.962039e-05
2.97143858e-05
6.75563849e-05
9.13004094e-05
0.000104716712
0.000108032923
0.000102110691
8.79333912e-05
6.63501823e-05
3.74840528e-05
7.66907038e-06
5.40029915e-07
4.30435339e-07
4.30085382e-07
4.30440204e-07
5.40533615e-07
7.67622285e-06
3.74933183e-05
6.63545594e-05
8.79355505e-05
0.000102111883
0.000108033593
0.000104716739
9.12991034e-05
6.75465655e-05
2.95483247e-05
2.96422881e-05
6.73928837e-05
9.10803289e-05
0.000104465388
0.000107775056
0.000101868933
8.77280712e-05
6.61996072e-05
3.74084912e-05
7.65955893e-06
5.39073293e-07
4.29387737e-07
4.29037583e-07
4.29392584e-07
5.39577903e-07
7.66671413e-06
3.74177476e-05
6.62039682e-05
8.77302058e-05
0.00010187009
0.000107775686
0.00010446537
9.1078978e-05
6.73830254e-05
2.94762075e-05
2.95701397e-05
6.72292129e-05
9.08599883e-05
0.000104213742
0.000107516836
0.000101626817
8.75224179e-05
6.60487448e-05
3.73326773e-05
7.64994219e-06
5.38113055e-07
4.28339445e-07
4.27989095e-07
4.28344273e-07
5.38618549e-07
7.65709961e-06
3.73419235e-05
6.60530887e-05
8.75245276e-05
0.000101627939
0.000107517421
0.000104213676
9.08585916e-05
6.72193155e-05
2.94040395e-05
2.94979418e-05
6.70653759e-05
9.06393906e-05
0.000103961776
0.000107258264
0.000101384348
8.73164369e-05
6.58975981e-05
3.72566126e-05
7.64022022e-06
5.37149197e-07
4.27290468e-07
4.26939934e-07
4.27295282e-07
5.37655536e-07
7.64737938e-06
3.72658479e-05
6.59019244e-05
8.73185197e-05
0.000101385434
0.000107258805
0.000103961661
9.06379466e-05
6.70554375e-05
2.93318216e-05
2.94256954e-05
6.69013749e-05
9.04185382e-05
0.000103709493
0.000106999345
0.00010114153
8.71101292e-05
6.57461699e-05
3.71802977e-05
7.63039283e-06
5.36181707e-07
4.26240832e-07
4.25890123e-07
4.26245628e-07
5.36688867e-07
7.63755329e-06
3.71895216e-05
6.57504791e-05
8.71121844e-05
0.000101142578
0.000106999841
0.000103709329
9.04170455e-05
6.68913946e-05
2.92595549e-05
2.93534017e-05
6.67372131e-05
9.01974346e-05
0.000103456898
0.000106740083
0.000100898366
8.69035015e-05
6.55944638e-05
3.71037342e-05
7.62045994e-06
5.35210571e-07
4.25190552e-07
4.24839674e-07
4.25195334e-07
5.35718518e-07
7.62762122e-06
3.71129457e-05
6.55987539e-05
8.69055283e-05
0.000100899377
0.000106740531
0.000103456682
9.01958917e-05
6.67271896e-05
2.91872406e-05
2.92810618e-05
6.65728926e-05
8.99760833e-05
0.000103203994
0.000106480481
0.000100654862
8.66965571e-05
6.54424822e-05
3.70269225e-05
7.6104212e-06
5.34235771e-07
4.2413965e-07
4.23788612e-07
4.24144411e-07
5.34744486e-07
7.61758285e-06
3.70361212e-05
6.54467526e-05
8.66985551e-05
0.000100655834
0.000106480881
0.000103203726
8.99744889e-05
6.65628249e-05
2.91148798e-05
2.92086771e-05
6.6408418e-05
8.97544878e-05
0.000102950785
0.000106220545
0.000100411024
8.64892988e-05
6.5290226e-05
3.69498635e-05
7.60027633e-06
5.33257292e-07
4.23088144e-07
4.22736954e-07
4.23092883e-07
5.3376674e-07
7.60743795e-06
3.69590487e-05
6.52944772e-05
8.64912678e-05
0.000100411954
0.000106220897
0.000102950463
8.97528409e-05
6.63983051e-05
2.90424739e-05
2.91362486e-05
6.62437931e-05
8.95326533e-05
0.000102697277
0.00010596028
0.000100166854
8.62817328e-05
6.51377016e-05
3.68725581e-05
7.59002489e-06
5.32275112e-07
4.22036057e-07
4.21684718e-07
4.22040778e-07
5.32785263e-07
7.59718602e-06
3.6881729e-05
6.51419317e-05
8.6283671e-05
0.000100167743
0.000105960581
0.000102696899
8.95309522e-05
6.62336333e-05
2.89700239e-05
2.90637778e-05
6.60790206e-05
8.93105848e-05
0.000102443475
0.000105699692
9.992236e-05
8.60738626e-05
6.49849095e-05
3.67950065e-05
7.57966642e-06
5.31289206e-07
4.20983405e-07
4.20631935e-07
4.20988105e-07
5.31800035e-07
7.58682664e-06
3.68041626e-05
6.49891178e-05
8.60757691e-05
9.99232069e-05
0.000105699942
0.000102443041
8.93088277e-05
6.60688134e-05
2.88975313e-05
2.8991266e-05
6.59141052e-05
8.90882863e-05
0.000102189385
0.000105438787
9.96775469e-05
8.58656932e-05
6.48318533e-05
3.67172097e-05
7.5692004e-06
5.3029955e-07
4.1993021e-07
4.19578616e-07
4.19934892e-07
5.3081103e-07
7.57635928e-06
3.67263504e-05
6.48360403e-05
8.58675688e-05
9.96783502e-05
0.000105438983
0.000102188892
8.90864728e-05
6.59038492e-05
2.88249975e-05
2.89187148e-05
6.5749052e-05
8.88657644e-05
0.000101935012
0.000105177571
9.94324207e-05
8.56572304e-05
6.46785349e-05
3.66391682e-05
7.55862633e-06
5.29306117e-07
4.18876498e-07
4.18524785e-07
4.18881152e-07
5.2981822e-07
7.56578348e-06
3.66482928e-05
6.46827002e-05
8.56590718e-05
9.94331797e-05
0.000105177713
0.000101934459
8.88638932e-05
6.5738746e-05
2.8752424e-05
2.88461254e-05
6.55838649e-05
8.86430253e-05
0.000101680364
0.000104916051
9.91869882e-05
8.54484777e-05
6.45249599e-05
3.65608827e-05
7.54794358e-06
5.28308883e-07
4.1782229e-07
4.17470467e-07
4.17826919e-07
5.28821581e-07
7.55509862e-06
3.65699905e-05
6.45291014e-05
8.5450286e-05
9.91877011e-05
0.000104916138
0.000101679751
8.86410941e-05
6.55735078e-05
2.86798119e-05
2.87734995e-05
6.54185492e-05
8.8420075e-05
0.000101425447
0.000104654234
9.89412549e-05
8.52394414e-05
6.43711298e-05
3.64823542e-05
7.53715175e-06
5.27307822e-07
4.16767605e-07
4.16415679e-07
4.1677221e-07
5.27821089e-07
7.54430424e-06
3.64914448e-05
6.4375248e-05
8.52412144e-05
9.89419213e-05
0.000104654264
0.000101424772
8.84180831e-05
6.54081399e-05
2.86071631e-05
2.87008386e-05
6.525311e-05
8.81969205e-05
0.00010117027
0.000104392129
9.86952292e-05
8.50301252e-05
6.42170491e-05
3.6403583e-05
7.52625019e-06
5.26302906e-07
4.1571247e-07
4.15360453e-07
4.15717054e-07
5.26816711e-07
7.53339975e-06
3.64126556e-05
6.42211422e-05
8.50318652e-05
9.86958478e-05
0.000104392101
0.000101169531
8.81948663e-05
6.52426471e-05
2.8534479e-05
2.86281445e-05
6.50875519e-05
8.79735684e-05
0.00010091484
0.000104129742
9.84489171e-05
8.4820538e-05
6.40627192e-05
3.63245704e-05
7.51523846e-06
5.2529411e-07
4.14656903e-07
4.14304808e-07
4.1466146e-07
5.25808418e-07
7.52238459e-06
3.63336243e-05
6.40667888e-05
8.48222411e-05
9.84494875e-05
0.000104129655
0.000100914036
8.7971451e-05
6.50770351e-05
2.84617614e-05
2.85554185e-05
6.49218819e-05
8.77500272e-05
0.000100659165
0.000103867082
9.82023266e-05
8.46106842e-05
6.3908146e-05
3.62453171e-05
7.50411603e-06
5.24281412e-07
4.13600937e-07
4.13248771e-07
4.13605467e-07
5.24796188e-07
7.51125828e-06
3.62543516e-05
6.39121901e-05
8.46123492e-05
9.82028478e-05
0.000103866934
0.000100658294
8.7747845e-05
6.49113094e-05
2.83890116e-05
2.84826625e-05
6.47561042e-05
8.75263035e-05
0.000100403254
0.000103604158
9.79554662e-05
8.44005688e-05
6.37533338e-05
3.61658245e-05
7.49288245e-06
5.23264786e-07
4.12544585e-07
4.12192363e-07
4.12549093e-07
5.23779984e-07
7.50002024e-06
3.61748387e-05
6.37573513e-05
8.44021968e-05
9.7955936e-05
0.000103603948
0.000100402316
8.75240555e-05
6.47454755e-05
2.83162316e-05
2.84098782e-05
6.45902254e-05
8.73024063e-05
0.000100147116
0.000103340978
9.77083436e-05
8.41902001e-05
6.35982857e-05
3.60860936e-05
7.48153732e-06
5.22244207e-07
4.11487888e-07
4.11135608e-07
4.1149236e-07
5.22759769e-07
7.48866987e-06
3.60950864e-05
6.36022741e-05
8.41917893e-05
9.77087609e-05
0.000103340705
0.000100146108
8.73000907e-05
6.45795391e-05
2.8243423e-05
2.83370675e-05
6.44242511e-05
8.70783432e-05
9.9890761e-05
0.000103077553
9.7460967e-05
8.39795845e-05
6.34430058e-05
3.60061265e-05
7.47008025e-06
5.21219661e-07
4.10430856e-07
4.10078536e-07
4.10435302e-07
5.21735501e-07
7.47720652e-06
3.60150955e-05
6.34469644e-05
8.39811316e-05
9.74613298e-05
0.000103077214
9.98896828e-05
8.70759594e-05
6.44135069e-05
2.81705878e-05
2.82642321e-05
6.42581882e-05
8.68541236e-05
9.96341981e-05
0.000102813891
9.72133449e-05
8.37687278e-05
6.32874987e-05
3.59259242e-05
7.45851089e-06
5.20191122e-07
4.09373521e-07
4.09021173e-07
4.09377932e-07
5.20707109e-07
7.4656293e-06
3.59348669e-05
6.32914259e-05
8.37702318e-05
9.72136521e-05
0.000102813486
9.96330474e-05
8.685167e-05
6.4247385e-05
2.80977275e-05
2.81913739e-05
6.40920419e-05
8.66297557e-05
9.93774376e-05
0.000102550004
9.69654882e-05
8.35576403e-05
6.31317713e-05
3.58454896e-05
7.44682913e-06
5.19158575e-07
4.08315914e-07
4.07963537e-07
4.08320283e-07
5.1967451e-07
7.45393726e-06
3.58544018e-05
6.31356616e-05
8.35590959e-05
9.69657351e-05
0.000102549529
9.93762127e-05
8.66272314e-05
6.40811795e-05
2.80248441e-05
2.81184947e-05
6.39258197e-05
8.64052495e-05
9.912049e-05
0.000102285901
9.67174046e-05
8.33463269e-05
6.29758278e-05
3.57648251e-05
7.43503481e-06
5.18122009e-07
4.07258052e-07
4.06905669e-07
4.07262381e-07
5.18637537e-07
7.4421286e-06
3.57736992e-05
6.29796742e-05
8.33477299e-05
9.67175876e-05
0.000102285355
9.91191889e-05
8.64026533e-05
6.39148979e-05
2.79519396e-05
2.80455967e-05
6.37595269e-05
8.61806136e-05
9.88633665e-05
0.000102021596
9.64691072e-05
8.31347997e-05
6.2819678e-05
3.56839356e-05
7.42312837e-06
5.1708141e-07
4.06199971e-07
4.05847581e-07
4.06204243e-07
5.17595963e-07
7.43020105e-06
3.56927596e-05
6.28234685e-05
8.31361406e-05
9.64692193e-05
0.000102020971
9.88619868e-05
8.61779452e-05
6.37485473e-05
2.7879016e-05
2.79726814e-05
6.35931712e-05
8.59558583e-05
9.86060783e-05
0.000101757098
9.62206068e-05
8.29230689e-05
6.26633281e-05
3.56028259e-05
7.41111026e-06
5.16036782e-07
4.05141696e-07
4.04789316e-07
4.05145885e-07
5.16549355e-07
7.41815022e-06
3.56115791e-05
6.26670432e-05
8.29243307e-05
9.6220636e-05
0.00010175639
9.8604618e-05
8.59531187e-05
6.35821377e-05
2.78060752e-05
2.78997509e-05
6.34267577e-05
8.57309928e-05
9.83486379e-05
0.000101492423
9.59719168e-05
8.27111453e-05
6.25067913e-05
3.55215065e-05
7.39898246e-06
5.14988155e-07
4.04083255e-07
4.03730891e-07
4.04087334e-07
5.1549701e-07
7.40596961e-06
3.55301543e-05
6.25103977e-05
8.27123037e-05
9.5971845e-05
0.00010149162
9.83470939e-05
8.57281848e-05
6.34156782e-05
2.77331196e-05
2.7826807e-05
6.32602935e-05
8.55060269e-05
9.80910565e-05
0.000101227582
9.57230501e-05
8.24990435e-05
6.23500796e-05
3.54399848e-05
7.38674621e-06
5.1393555e-07
4.03024683e-07
4.02672341e-07
4.03028592e-07
5.14437606e-07
7.39364509e-06
3.54484674e-05
6.235352e-05
8.2500054e-05
9.57228486e-05
0.000101226668
9.80894259e-05
8.55031595e-05
6.32491861e-05
2.76601519e-05
2.77538511e-05
6.30937814e-05
8.52809663e-05
9.78333419e-05
0.000100962584
9.54740196e-05
8.22867819e-05
6.21932152e-05
3.5358276e-05
7.37440434e-06
5.12879034e-07
4.01966005e-07
4.01613704e-07
4.0196965e-07
5.13368891e-07
7.38115276e-06
3.53664931e-05
6.2196396e-05
8.22875704e-05
9.54736368e-05
0.000100961535
9.78316247e-05
8.527806e-05
6.30826852e-05
2.75871766e-05
2.76808845e-05
6.29272352e-05
8.50558236e-05
9.75754993e-05
0.000100697427
9.5224813e-05
8.20743419e-05
6.20361888e-05
3.52764015e-05
7.36196497e-06
5.11818762e-07
4.00907268e-07
4.00555014e-07
4.00910501e-07
5.12287263e-07
7.36845598e-06
3.52841899e-05
6.2038955e-05
8.20747847e-05
9.52241581e-05
0.000100696192
9.75736927e-05
8.50529257e-05
6.29162553e-05
2.75142012e-05
2.76079083e-05
6.27606524e-05
8.48305973e-05
9.73175296e-05
0.000100432105
9.49754131e-05
8.18616896e-05
6.18789477e-05
3.51943299e-05
7.34942441e-06
5.10754778e-07
3.99848483e-07
3.99496289e-07
3.99851086e-07
5.11187842e-07
7.35549444e-06
3.52014985e-05
6.18811646e-05
8.18617332e-05
9.49745331e-05
0.000100430849
9.73159371e-05
8.48281616e-05
6.27505194e-05
2.74412453e-05
)
;

boundaryField
{
    inlet
    {
        type            calculated;
        value           nonuniform List<scalar>
25
(
6.06722125e-07
6.06722197e-07
6.0672234e-07
6.06722546e-07
6.06722805e-07
6.06723108e-07
6.06723444e-07
6.06723801e-07
6.06724171e-07
6.06724546e-07
6.06725027e-07
6.06725677e-07
6.06726494e-07
6.06727478e-07
6.06728632e-07
6.06729961e-07
6.06731402e-07
6.06732848e-07
6.06734309e-07
6.06735796e-07
6.06737321e-07
6.06738899e-07
6.0674054e-07
6.06742256e-07
6.06743938e-07
)
;
    }
    outlet
    {
        type            calculated;
        value           nonuniform List<scalar>
25
(
2.75713964e-05
6.26776504e-05
8.47184073e-05
9.71888251e-05
0.000100299281
9.4849805e-05
8.17534242e-05
6.17971099e-05
3.51477834e-05
7.33970433e-06
5.10079268e-07
3.99319651e-07
3.98967919e-07
3.99322242e-07
5.10511738e-07
7.34576588e-06
3.51549398e-05
6.17993177e-05
8.17534581e-05
9.48489128e-05
0.00010029801
9.71872163e-05
8.47159563e-05
6.26675137e-05
2.7404942e-05
)
;
    }
    wall1
    {
        type            compressible::alphatPhaseChangeJayatillekeWallFunction;
        Prt             0.85;
        Cmu             0.09;
        kappa           0.41;