/*--------------------------------*- C++ -*----------------------------------*\
| =========                 |                                                 |
| \\      /  F ield         | OpenFOAM: The Open Source CFD Toolbox           |
|  \\    /   O peration     | Version:  dev                                   |
|   \\  /    A nd           | Web:      www.OpenFOAM.org                      |
|    \\/     M anipulation  |                                                 |
\*---------------------------------------------------------------------------*/
FoamFile
{
    version     2.0;
    format      ascii;
    class       volScalarField;
    location    "5";
    object      epsilon.gas;
}
// * * * * * * * * * * * * * * * * * * * * * * * * * * * * * * * * * * * * * //

dimensions      [0 2 -3 0 0 0 0];

internalField   nonuniform List<scalar>
1875
(
0.0419653487
0.0166405358
0.00900207344
0.005683038
0.00380594589
0.00255249533
0.00162012472
0.000886859793
0.000304605708
3.0915414e-05
6.71918179e-07
3.20714194e-07
3.20043739e-07
3.20726797e-07
6.73305006e-07
3.09349773e-05
0.000304649669
0.000886891149
0.00162018133
0.00255259503
0.00380611021
0.00568331982
0.00900266053
0.0166436526
0.0412932979
0.0419654611
0.0166405729
0.00900213286
0.00568312127
0.00380605591
0.00255263535
0.00162029714
0.000887055327
0.000304796843
3.09603236e-05
6.72865031e-07
3.20684035e-07
3.20011544e-07
3.2069672e-07
6.74247547e-07
3.09795062e-05
0.000304836927
0.000887075749
0.00162033422
0.00255270456
0.00380617519
0.00568333671
0.00900261669
0.0166433192
0.0412946744
0.0419655923
0.0166406294
0.00900220696
0.00568321909
0.00380618301
0.00255279676
0.00162049631
0.000887282427
0.000305017818
3.10130221e-05
6.73985809e-07
3.20648389e-07
3.19973494e-07
3.20661053e-07
6.75359597e-07
3.10320002e-05
0.000305057356
0.000887302372
0.00162053294
0.00255286542
0.00380630151
0.00568343343
0.00900268938
0.0166433822
0.0412931691
0.0419657345
0.0166407085
0.00900229636
0.00568332742
0.00380631734
0.00255296286
0.00162069785
0.00088750996
0.000305236521
3.10656132e-05
6.75110969e-07
3.20612648e-07
3.19935334e-07
3.20625325e-07
6.76481143e-07
3.10844531e-05
0.000305275709
0.000887529772
0.00162073462
0.0025530318
0.00380643624
0.0056835423
0.00900277974
0.0166434609
0.041291993
0.0419658904
0.0166408076
0.00900240005
0.00568344579
0.00380645859
0.00255313329
0.00162090137
0.000887737056
0.000305452579
3.11179752e-05
6.76237718e-07
3.20576898e-07
3.19897156e-07
3.20589606e-07
6.7760707e-07
3.11367139e-05
0.00030549148
0.000887756758
0.00162093827
0.00255320253
0.00380657788
0.00568366122
0.00900288445
0.0166435668
0.0412907793
0.0419660621
0.0166409246
0.0090025172
0.0056835739
0.00380660666
0.00255330811
0.00162110694
0.000887963559
0.0003056663
3.11701565e-05
6.77365951e-07
3.20541095e-07
3.19858921e-07
3.20553846e-07
6.7873619e-07
3.11888214e-05
0.000305704959
0.000887983162
0.00162114396
0.00255337762
0.00380672632
0.00568378985
0.0090030026
0.0166436878
0.0412895822
0.0419662513
0.0166410579
0.00900264693
0.0056837113
0.00380676134
0.00255348717
0.00162131442
0.00088818924
0.000305877902
3.12221844e-05
6.7849642e-07
3.20505222e-07
3.19820609e-07
3.20518022e-07
6.79868791e-07
3.12407973e-05
0.000305916355
0.000888208747
0.00162135157
0.00255355695
0.00380688137
0.00568392776
0.00900313335
0.0166438253
0.0412883945
0.0419664589
0.0166412061
0.00900278836
0.00568385749
0.00380692231
0.00255367021
0.00162152353
0.000888413763
0.000306087469
3.12740556e-05
6.79628744e-07
3.20469282e-07
3.19782221e-07
3.20482137e-07
6.81004194e-07
3.12926352e-05
0.000306125746
0.000888433176
0.0016215608
0.00255374023
0.00380704267
0.00568407445
0.00900327577
0.016643978
0.0412872181
0.0419666856
0.0166413681
0.0090029406
0.00568401194
0.00380708916
0.00255385689
0.00162173389
0.000888636741
0.00030629499
3.13257463e-05
6.80762109e-07
3.20433291e-07
3.19743772e-07
3.20446204e-07
6.8214137e-07
3.1344309e-05
0.000306333119
0.000888656065
0.00162177127
0.00255392715
0.00380720985
0.00568422938
0.009003429
0.0166441443
0.0412860534
0.0419669319
0.0166415426
0.00900310289
0.0056841741
0.00380726151
0.00255404684
0.00162194509
0.000888857809
0.000306500435
3.13772288e-05
6.81895634e-07
3.20397266e-07
3.19705286e-07
3.20410241e-07
6.83279298e-07
3.13957891e-05
0.000306538441
0.000888877045
0.00162198256
0.00255411732
0.00380738251
0.005684392
0.00900359225
0.0166443235
0.0412849008
0.0419671978
0.0166417288
0.00900327445
0.00568434348
0.00380743896
0.0025542397
0.00162215675
0.000889076664
0.000306703794
3.14284822e-05
6.83028595e-07
3.20361222e-07
3.19666776e-07
3.20374262e-07
6.84417151e-07
3.14470531e-05
0.0003067417
0.000889095813
0.00162219432
0.00255431038
0.00380756026
0.00568456183
0.00900376479
0.0166445144
0.0412837604
0.0419674835
0.0166419258
0.00900345465
0.00568451959
0.00380762115
0.00255443512
0.00162236851
0.000889293068
0.000306905089
3.14794945e-05
6.84160494e-07
3.20325168e-07
3.19628254e-07
3.20338273e-07
6.85554343e-07
3.14980876e-05
0.000306942915
0.000889312134
0.00162240616
0.00255450601
0.00380774272
0.00568473838
0.00900394595
0.0166447163
0.0412826323
0.0419677891
0.0166421329
0.00900364284
0.00568470198
0.0038078077
0.00255463275
0.00162258005
0.000889506842
0.000307104361
3.15302619e-05
6.85291023e-07
3.20289106e-07
3.19589721e-07
3.20302278e-07
6.86690504e-07
3.15488876e-05
0.000307142128
0.000889525826
0.00162261778
0.00255470383
0.00380792955
0.00568492119
0.00900413508
0.0166449283
0.0412815163
0.0419681141
0.0166423493
0.00900383839
0.00568489015
0.00380799822
0.00255483227
0.00162279107
0.000889717845
0.000307301666
3.15807852e-05
6.86420002e-07
3.20253035e-07
3.1955118e-07
3.20266277e-07
6.878254e-07
3.15994528e-05
0.000307339392
0.000889736752
0.00162282887
0.00255490354
0.00380812034
0.00568510979
0.00900433158
0.0166451498
0.0412804123
0.0419684586
0.0166425744
0.00900404069
0.00568508364
0.00380819233
0.00255503331
0.00162300124
0.000889925965
0.00030749706
3.16310672e-05
6.87547314e-07
3.20216954e-07
3.19512629e-07
3.20230267e-07
6.88958867e-07
3.16497849e-05
0.000307534764
0.000889944798
0.00162303912
0.00255510476
0.00380831472
0.00568530369
0.00900453483
0.0166453801
0.04127932
0.0419688221
0.0166428074
0.00900424914
0.00568528194
0.0038083896
0.0025552355
0.0016232103
0.000890131107
0.000307690595
3.1681111e-05
6.88672861e-07
3.20180863e-07
3.19474067e-07
3.20194247e-07
6.90090779e-07
3.16998861e-05
0.000307728292
0.000890149869
0.00162324825
0.00255530714
0.00380851226
0.00568550241
0.00900474423
0.0166456184
0.041278239
0.0419692042
0.0166430477
0.00900446312
0.00568548454
0.0038085896
0.00255543847
0.00162341796
0.00089033319
0.000307882317
3.17309187e-05
6.89796545e-07
3.20144759e-07
3.19435493e-07
3.20158216e-07
6.91220997e-07
3.17497576e-05
0.00030792002
0.000890351884
0.00162345596
0.00255551027
0.00380871251
0.00568570543
0.00900495916
0.0166458639
0.0412771691
0.0419696049
0.0166432945
0.00900468203
0.00568569093
0.00380879187
0.00255564181
0.00162362392
0.000890532143
0.00030807226
3.17804915e-05
6.90918254e-07
3.20108642e-07
3.19396907e-07
3.20122173e-07
6.92349389e-07
3.17993998e-05
0.000308109987
0.000890550773
0.00162366198
0.0025557138
0.00380891505
0.00568591223
0.00900517902
0.0166461163
0.0412761096
0.0419700232
0.0166435474
0.00900490525
0.00568590055
0.00380899594
0.00255584514
0.0016238279
0.000890727907
0.000308260459
3.18298295e-05
6.92037871e-07
3.20072514e-07
3.19358312e-07
3.2008612e-07
6.93475813e-07
3.1848812e-05
0.000308298219
0.000890746477
0.00162386604
0.0025559173
0.00380911939
0.00568612229
0.0090054032
0.0166463746
0.0412750601
0.0419704591
0.0166438054
0.00900513215
0.00568611288
0.00380920137
0.00255604807
0.00162402966
0.000890920435
0.000308446939
3.18789325e-05
6.93155274e-07
3.20036374e-07
3.19319707e-07
3.20050055e-07
6.9460013e-07
3.18979936e-05
0.000308484745
0.000890938949
0.00162406786
0.00255612039
0.00380932507
0.00568633505
0.00900563108
0.0166466384
0.0412740201
0.0419709118
0.0166440681
0.00900536211
0.00568632735
0.00380940764
0.00255625019
0.00162422893
0.000891109688
0.000308631726
3.19277999e-05
6.94270346e-07
3.20000225e-07
3.19281095e-07
3.20013982e-07
6.95722204e-07
3.19469431e-05
0.000308669588
0.000891128151
0.00162426719
0.00255632269
0.00380953161
0.00568654995
0.00900586202
0.0166469069
0.0412729893
0.0419713809
0.0166443347
0.0090055945
0.0056865434
0.00380961428
0.00255645112
0.0016244255
0.000891295641
0.000308814845
3.19764314e-05
6.95382983e-07
3.19964067e-07
3.19242476e-07
3.199779e-07
6.96841916e-07
3.19956601e-05
0.000308852773
0.000891314056
0.00162446381
0.0025565238
0.00380973853
0.00568676645
0.00900609542
0.0166471793
0.0412719668
0.0419718657
0.0166446046
0.00900582869
0.00568676048
0.00380982081
0.00255665049
0.00162461912
0.000891478278
0.000308996319
3.2024827e-05
6.96493092e-07
3.19927902e-07
3.19203853e-07
3.19941812e-07
6.97959164e-07
3.20441436e-05
0.000309034322
0.000891496649
0.00162465751
0.00255672334
0.00380994534
0.00568698397
0.00900633062
0.0166474552
0.041270952
0.0419723657
0.0166448771
0.00900606403
0.00568697799
0.00381002675
0.00255684792
0.00162480962
0.000891657593
0.000309176173
3.20729868e-05
6.97600597e-07
3.19891727e-07
3.19165225e-07
3.19905715e-07
6.99073855e-07
3.20923937e-05
0.000309214261
0.000891675925
0.00162484807
0.00255692095
0.00381015155
0.00568720196
0.009006567
0.0166477336
0.0412699444
0.0419728802
0.0166451514
0.00900629988
0.00568719538
0.00381023162
0.00255704307
0.0016249968
0.000891833587
0.000309354434
3.21209118e-05
6.98705438e-07
3.19855546e-07
3.19126593e-07
3.19869612e-07
7.00185927e-07
3.2140411e-05
0.000309392612
0.000891851884
0.0016250353
0.00255711627
0.00381035671
0.00568741982
0.0090068039
0.0166480141
0.0412689431
0.0419734084
0.0166454271
0.0090065356
0.00568741207
0.00381043493
0.00255723558
0.00162518048
0.00089200627
0.000309531124
3.21686031e-05
6.99807567e-07
3.19819356e-07
3.19087956e-07
3.198335e-07
7.01295323e-07
3.21881961e-05
0.000309569401
0.000892024535
0.00162521905
0.00255730896
0.00381056033
0.00568763699
0.00900704068
0.016648296
0.0412679477
0.0419739497
0.0166457031
0.00900677053
0.00568762748
0.00381063624
0.00255742512
0.00162536052
0.000892175654
0.000309706271
3.22160623e-05
7.00906952e-07
3.19783156e-07
3.19049313e-07
3.1979738e-07
7.02401996e-07
3.22357503e-05
0.000309744653
0.000892193893
0.00162539915
0.00255749869
0.00381076194
0.00568785291
0.00900727669
0.0166485784
0.0412669571
0.0419745034
0.0166459791
0.009007004
0.00568784104
0.00381083506
0.00255761137
0.00162553676
0.00089234176
0.0003098799
3.22632908e-05
7.02003564e-07
3.19746947e-07
3.19010665e-07
3.19761249e-07
7.03505921e-07
3.22830747e-05
0.000309918392
0.000892359974
0.00162557545
0.00255768512
0.00381096108
0.00568806698
0.00900751128
0.0166488607
0.0412659706
0.0419750684
0.016646254
0.00900723537
0.00568805218
0.00381103096
0.00255779404
0.00162570907
0.000892504604
0.000310052035
3.23102903e-05
7.03097379e-07
3.19710726e-07
3.18972008e-07
3.19725108e-07
7.04607064e-07
3.2330171e-05
0.000310090642
0.000892522799
0.00162574782
0.00255786797
0.00381115728
0.00568827864
0.00900774378
0.0166491423
0.0412649874
0.0419756439
0.0166465274
0.00900746397
0.00568826031
0.00381122345
0.00255797279
0.00162587731
0.000892664211
0.000310222695
3.23570618e-05
7.0418837e-07
3.19674492e-07
3.18933344e-07
3.19688953e-07
7.05705395e-07
3.237704e-05
0.000310261422
0.00089268239
0.00162591613
0.00255804692
0.00381135011
0.00568848731
0.00900797353
0.0166494223
0.0412640063
0.041976229
0.0166467985
0.00900768913
0.00568846487
0.00381141212
0.00255814736
0.00162604138
0.000892820599
0.000310391899
3.24036062e-05
7.05276502e-07
3.19638245e-07
3.18894671e-07
3.19652787e-07
7.06800875e-07
3.24236821e-05
0.00031043075
0.000892838765
0.00162608027
0.00255822168
0.00381153911
0.00568869244
0.00900819987
0.0166497
0.0412630267
0.0419768227
0.0166470665
0.0090079102
0.00568866529
0.00381159651
0.00255831745
0.00162620116
0.000892973789
0.000310559663
3.24499234e-05
7.06361729e-07
3.19601984e-07
3.18855987e-07
3.19616606e-07
7.07893455e-07
3.24700974e-05
0.000310598642
0.000892991947
0.00162624012
0.00255839197
0.00381172384
0.00568889342
0.00900842214
0.0166499748
0.0412620473
0.0419774241
0.0166473307
0.00900812653
0.00568886101
0.00381177619
0.0025584828
0.00162635655
0.0008931238
0.000310725997
3.24960131e-05
7.07443992e-07
3.19565709e-07
3.18817294e-07
3.19580411e-07
7.08983076e-07
3.25162852e-05
0.000310765107
0.000893141952
0.00162639558
0.00255855752
0.00381190388
0.00568908972
0.0090086397
0.016650246
0.0412610673
0.0419780322
0.0166475903
0.00900833747
0.00568905149
0.00381195077
0.00255864315
0.00162650743
0.000893270647
0.000310890909
3.25418737e-05
7.08523221e-07
3.19529419e-07
3.18778591e-07
3.19544202e-07
7.10069658e-07
3.2562244e-05
0.000310930153
0.000893288799
0.00162654654
0.00255871808
0.0038120788
0.00568928079
0.00900885188
0.0166505127
0.0412600856
0.0419786458
0.0166478448
0.00900854241
0.00568923617
0.00381211981
0.00255879826
0.00162665374
0.000893414347
0.000311054405
3.25875035e-05
7.09599331e-07
3.19493115e-07
3.18739879e-07
3.19507981e-07
7.11153122e-07
3.26079719e-05
0.000311093784
0.000893432501
0.00162669292
0.00255887339
0.00381224821
0.00568946609
0.00900905809
0.0166507742
0.0412591009
0.0419792639
0.0166480934
0.00900874074
0.00568941457
0.00381228295
0.00255894788
0.00162679538
0.000893554915
0.000311216487
3.26329001e-05
7.10672229e-07
3.19456799e-07
3.18701161e-07
3.19471746e-07
7.12233365e-07
3.26534663e-05
0.000311256005
0.000893573074
0.00162683463
0.00255902321
0.00381241172
0.00568964511
0.00900925772
0.0166510302
0.0412581125
0.0419798857
0.0166483356
0.00900893189
0.00568958618
0.0038124398
0.00255909178
0.00162693227
0.000893692361
0.000311377155
3.26780611e-05
7.11741815e-07
3.19420471e-07
3.18662434e-07
3.194355e-07
7.13310293e-07
3.26987246e-05
0.000311416813
0.00089371053
0.0016269716
0.00255916733
0.00381256896
0.00568981737
0.00900945018
0.0166512796
0.0412571191
0.0419805098
0.0166485706
0.00900911532
0.00568975054
0.00381259002
0.00255922977
0.00162706434
0.000893826703
0.000311536411
3.27229835e-05
7.12807993e-07
3.19384131e-07
3.18623703e-07
3.19399242e-07
7.14383803e-07
3.27437441e-05
0.00031157621
0.000893844884
0.00162710375
0.00255930553
0.00381271956
0.00568998238
0.00900963495
0.0166515221
0.0412561197
0.0419811354
0.0166487981
0.00900929053
0.0056899072
0.00381273328
0.00255936165
0.00162719153
0.000893957954
0.000311694253
3.27676647e-05
7.13870664e-07
3.1934778e-07
3.18584966e-07
3.19362973e-07
7.15453799e-07
3.27885221e-05
0.000311734195
0.00089397615
0.00162723102
0.00255943764
0.0038128632
0.0056901397
0.00900981152
0.0166517571
0.041255113
0.0419817613
0.0166490174
0.00900945705
0.00569005576
0.00381286925
0.00255948725
0.00162731379
0.000894086126
0.000311850682
3.28121026e-05
7.14929738e-07
3.1931142e-07
3.18546226e-07
3.19326695e-07
7.16520184e-07
3.28330559e-05
0.000311890767
0.000894104343
0.00162735336
0.00255956345
0.00381299958
0.00569028893
0.00900997942
0.0166519839
0.0412540982
0.0419823865
0.0166492282
0.00900961445
0.00569019583
0.00381299768
0.0025596064
0.00162743107
0.000894211238
0.000312005699
3.28562946e-05
7.15985132e-07
3.19275049e-07
3.1850748e-07
3.19290407e-07
7.1758288e-07
3.28773436e-05
0.000312045928
0.000894229477
0.00162747072
0.00255968282
0.00381312841
0.00569042969
0.00901013822
0.0166522023
0.0412530742
0.0419830099
0.0166494298
0.00900976233
0.00569032707
0.00381311829
0.00255971895
0.00162754332
0.000894333303
0.000312159303
3.29002394e-05
7.17036773e-07
3.19238667e-07
3.18468731e-07
3.19254108e-07
7.18641811e-07
3.29213831e-05
0.000312199678
0.000894351568
0.00162758306
0.0025597956
0.00381324944
0.00569056163
0.00901028752
0.0166524117
0.0412520397
0.0419836305
0.016649622
0.00900990036
0.00569044916
0.00381323085
0.00255982478
0.00162765052
0.000894452337
0.000312311497
3.2943935e-05
7.18084591e-07
3.19202273e-07
3.18429977e-07
3.19217797e-07
7.19696908e-07
3.2965173e-05
0.000312352017
0.000894470632
0.00162769034
0.00255990165
0.0038133624
0.00569068443
0.00901042698
0.0166526118
0.0412509939
0.0419842474
0.0166498045
0.00901002821
0.00569056182
0.00381333514
0.00255992377
0.00162775263
0.000894568357
0.000312462282
3.29873802e-05
7.19128525e-07
3.19165867e-07
3.18391216e-07
3.19181474e-07
7.2074811e-07
3.30087117e-05
0.000312502946
0.000894586684
0.00162779255
0.00256000087
0.0038134671
0.00569079781
0.00901055629
0.0166528021
0.0412499356
0.0419848596
0.0166499769
0.00901014562
0.0056906648
0.00381343096
0.00256001581
0.00162784965
0.000894681378
0.000312611657
3.30305735e-05
7.20168516e-07
3.19129446e-07
3.18352448e-07
3.19145137e-07
7.21795354e-07
3.30519979e-05
0.000312652467
0.000894699741
0.00162788965
0.00256009313
0.00381356335
0.00569090152
0.00901067518
0.0166529825
0.041248864
0.0419854659
0.016650139
0.00901025235
0.00569075787
0.00381351816
0.00256010082
0.00162794154
0.000894791415
0.000312759622
3.30735134e-05
7.21204501e-07
3.1909301e-07
3.18313671e-07
3.19108784e-07
7.22838582e-07
3.309503e-05
0.000312800578
0.000894809817
0.00162798164
0.00256017837
0.00381365097
0.00569099532
0.0090107834
0.0166531526
0.0412477777
0.0419860657
0.0166502905
0.00901034823
0.00569084085
0.00381359658
0.00256017871
0.00162802831
0.000894898481
0.000312906175
3.31161981e-05
7.22236414e-07
3.19056555e-07
3.18274882e-07
3.19072414e-07
7.23877725e-07
3.31378062e-05
0.000312947276
0.000894916925
0.0016280685
0.0025602565
0.00381372983
0.00569107904
0.00901088077
0.0166533123
0.0412466761
0.0419866579
0.0166504314
0.00901043308
0.00569091357
0.0038136661
0.00256024944
0.00162810994
0.000895002587
0.000313051311
3.31586255e-05
7.23264179e-07
3.1902008e-07
3.18236082e-07
3.19036023e-07
7.24912707e-07
3.31803244e-05
0.000313092559
0.000895021076
0.00162815023
0.00256032745
0.00381379978
0.00569115251
0.00901096713
0.0166534614
0.0412455581
0.0419872417
0.0166505614
0.0090105068
0.00569097591
0.00381372661
0.00256031294
0.00162818644
0.000895103743
0.000313195025
3.32007929e-05
7.24287712e-07
3.18983585e-07
3.18197269e-07
3.18999613e-07
7.25943447e-07
3.32225818e-05
0.000313236419
0.00089512228
0.00162822681
0.00256039119
0.00381386073
0.00569121561
0.00901104237
0.0166535998
0.0412444229
0.0419878161
0.0166506805
0.00901056931
0.00569102778
0.00381377805
0.00256036917
0.00162825778
0.000895201958
0.000313337309
3.32426969e-05
7.25306912e-07
3.18947068e-07
3.1815844e-07
3.18963179e-07
7.2696984e-07
3.32645752e-05
0.000313378847
0.000895220546
0.00162829827
0.00256044766
0.00381391259
0.00569126823
0.00901110643
0.0166537273
0.0412432696
0.0419883805
0.0166507887
0.00901062059
0.00569106912
0.00381382033
0.00256041811
0.00162832399
0.000895297238
0.000313478149
3.3284334e-05
7.26321669e-07
3.18910527e-07
3.18119596e-07
3.18926723e-07
7.2799178e-07
3.33063008e-05
0.000313519833
0.00089531588
0.00162836458
0.00256049683
0.00381395531
0.00569131033
0.00901115925
0.0166538439
0.0412420973
0.0419889341
0.016650886
0.00901066063
0.00569109988
0.00381385343
0.00256045975
0.00162838508
0.000895389589
0.000313617534
3.33256994e-05
7.27331857e-07
3.18873962e-07
3.18080737e-07
3.18890244e-07
7.29009136e-07
3.33477543e-05
0.000313659362
0.000895408286
0.00162842577
0.0025605387
0.00381398886
0.00569134186
0.00901120085
0.0166539498
0.0412409054
0.0419894764
0.0166509724
0.00901068949
0.00569112008
0.00381387734
0.00256049407
0.00162844104
0.000895479012
0.000313755448
3.33667886e-05
7.28337334e-07
3.18837373e-07
3.18041861e-07
3.1885374e-07
7.3002177e-07
3.33889305e-05
0.00031379742
0.00089549777
0.00162848183
0.00256057327
0.0038140132
0.00569136282
0.00901123127
0.0166540447
0.0412396931
0.0419900064
0.016651048
0.00901070722
0.00569112973
0.00381389206
0.00256052109
0.0016284919
0.000895565512
0.000313891873
3.34075958e-05
7.29337951e-07
3.18800759e-07
3.1800297e-07
3.18817212e-07
7.31029531e-07
3.34298241e-05
0.000313933989
0.000895584331
0.0016285328
0.00256060053
0.00381402836
0.00569137325
0.00901125058
0.016654129
0.0412384599
0.041990524
0.0166511129
0.00901071398
0.00569112891
0.00381389762
0.00256054084
0.00162853768
0.000895649091
0.000314026791
3.34481152e-05
7.30333544e-07
3.18764122e-07
3.17964063e-07
3.1878066e-07
7.32032253e-07
3.34704293e-05
0.000314069051
0.000895667974
0.00162857869
0.00256062051
0.00381403435
0.0056913732
0.00901125891
0.0166542026
0.0412372049
0.0419910282
0.0166511674
0.0090107099
0.0056911177
0.00381389407
0.00256055335
0.0016285784
0.00089572975
0.000314160183
3.34883407e-05
7.31323943e-07
3.1872746e-07
3.17925142e-07
3.18744083e-07
7.33029764e-07
3.35107398e-05
0.000314202586
0.000895748701
0.00162861951
0.00256063324
0.00381403125
0.00569136277
0.00901125641
0.0166542658
0.0412359278
0.0419915189
0.0166512115
0.00901069518
0.00569109625
0.00381388148
0.00256055865
0.00162861408
0.000895807494
0.000314292028
3.35282658e-05
7.32308971e-07
3.18690775e-07
3.17886207e-07
3.18707483e-07
7.34021882e-07
3.35507493e-05
0.000314334572
0.000895826512
0.0016286553
0.00256063878
0.0038140191
0.00569134208
0.00901124326
0.0166543187
0.0412346282
0.0419919955
0.0166512456
0.00901067002
0.00569106469
0.00381385996
0.00256055681
0.00162864477
0.000895882323
0.000314422304
3.3567884e-05
7.33288441e-07
3.18654066e-07
3.17847259e-07
3.1867086e-07
7.35008417e-07
3.35904508e-05
0.00031446499
0.000895901412
0.0016286861
0.00256063718
0.003813998
0.00569131129
0.0090112197
0.0166543617
0.0412333052
0.0419924579
0.0166512698
0.00901063471
0.0056910232
0.00381382962
0.00256054792
0.0016286705
0.000895954243
0.000314550992
3.36071884e-05
7.34262167e-07
3.18617334e-07
3.17808299e-07
3.18634214e-07
7.35989164e-07
3.36298377e-05
0.000314593817
0.000895973405
0.00162871194
0.00256062852
0.00381396809
0.00569127057
0.00901118597
0.0166543949
0.041231959
0.0419929055
0.0166512846
0.00901058952
0.00569097199
0.00381379057
0.00256053205
0.00162869132
0.000896023258
0.000314678068
3.36461721e-05
7.35229953e-07
3.1858058e-07
3.17769326e-07
3.18597544e-07
7.3696391e-07
3.36689027e-05
0.000314721032
0.000896042493
0.00162873286
0.00256061287
0.00381392948
0.00569122011
0.00901114234
0.0166544187
0.0412305889
0.0419933381
0.0166512903
0.00901053476
0.0056909113
0.00381374302
0.00256050929
0.00162870728
0.000896089378
0.000314803513
3.36848282e-05
7.36191607e-07
3.18543804e-07
3.17730344e-07
3.18560852e-07
7.37932428e-07
3.37076388e-05
0.000314846613
0.000896108683
0.00162874893
0.00256059034
0.00381388233
0.00569116017
0.00901108916
0.0166544334
0.0412291949
0.0419937558
0.0166512871
0.00901047076
0.00569084139
0.0038136871
0.00256047977
0.00162871841
0.000896152606
0.000314927306
3.37231497e-05
7.37146929e-07
3.18507006e-07
3.17691352e-07
3.18524136e-07
7.38894444e-07
3.37460381e-05
0.000314970536
0.000896171977
0.00162876017
0.00256056102
0.00381382681
0.00569109098
0.0090110267
0.0166544392
0.0412277766
0.041994158
0.0166512754
0.00901039791
0.00569076255
0.00381362303
0.00256044361
0.00162872483
0.00089621296
0.000315049428
3.37611299e-05
7.38095723e-07
3.18470185e-07
3.1765235e-07
3.18487394e-07
7.39849664e-07
3.3784093e-05
0.00031509278
0.000896232388
0.00162876666
0.00256052506
0.00381376312
0.00569101283
0.00901095536
0.0166544366
0.041226334
0.041994545
0.0166512557
0.00901031656
0.00569067506
0.00381355102
0.00256040093
0.00162872656
0.000896270446
0.000315169856
3.37987613e-05
7.39037784e-07
3.18433343e-07
3.17613339e-07
3.18450625e-07
7.40797667e-07
3.38217942e-05
0.000315213317
0.000896289912
0.00162876845
0.00256048253
0.00381369144
0.00569092598
0.00901087545
0.0166544259
0.0412248668
0.0419949164
0.0166512284
0.00901022717
0.00569057928
0.00381347132
0.00256035191
0.00162872371
0.000896325094
0.000315288577
3.3836038e-05
7.39972917e-07
3.1839648e-07
3.17574319e-07
3.18413824e-07
7.41737948e-07
3.38591328e-05
0.000315332127
0.000896344565
0.00162876562
0.00256043362
0.00381361201
0.00569083077
0.0090107874
0.0166544074
0.0412233754
0.0419952723
0.0166511939
0.00901013012
0.00569047554
0.00381338417
0.00256029669
0.00162871634
0.000896376914
0.000315405571
3.38729524e-05
7.40900915e-07
3.18359593e-07
3.17535291e-07
3.18376983e-07
7.42669666e-07
3.38960955e-05
0.00031544917
0.000896396331
0.00162875819
0.00256037841
0.00381352501
0.00569072744
0.00901069149
0.0166543814
0.0412218594
0.0419956127
0.0166511527
0.00901002598
0.00569036429
0.0038132899
0.00256023551
0.0016287046
0.000896425963
0.000315520837
3.39094997e-05
7.4182159e-07
3.18322685e-07
3.17496254e-07
3.18340087e-07
7.43591657e-07
3.39326683e-05
0.000315564418
0.000896445223
0.00162874626
0.00256031708
0.00381343069
0.00569061636
0.00901058816
0.0166543484
0.0412203195
0.0419959371
0.0166511053
0.00900991514
0.00569024587
0.00381318878
0.00256016854
0.00162868857
0.000896472266
0.000315634361
3.39456733e-05
7.42734742e-07
3.18285755e-07
3.1745721e-07
3.18303114e-07
7.44501851e-07
3.39688272e-05
0.000315677806
0.000896491185
0.00162872981
0.00256024967
0.00381332918
0.00569049769
0.00901047756
0.0166543083
0.0412187557
0.0419962458
0.0166510526
0.00900979836
0.0056901209
0.00381308126
0.0025600961
0.00162866848
0.00089651594
0.000315746163
3.39814703e-05
7.43640212e-07
3.18248801e-07
3.17418158e-07
3.18266022e-07
7.45396991e-07
3.40045409e-05
0.000315789273
0.000896534199
0.00162870889
0.00256017631
0.00381322068
0.0056903717
0.00901036
0.0166542612
0.0412171691
0.0419965377
0.016650995
0.00900967616
0.00568998982
0.0038129677
0.00256001845
0.00162864446
0.000896557059
0.000315856257
3.40168876e-05
7.44537835e-07
3.18211824e-07
3.17379097e-07
3.18228739e-07
7.46271215e-07
3.40397532e-05
0.000315898679
0.000896574101
0.00162868335
0.00256009687
0.00381310507
0.00569023828
0.00901023521
0.0166542063
0.0412155606
0.0419968125
0.0166509339
0.00900954947
0.00568985338
0.00381284871
0.00255993604
0.00162861684
0.000896595796
0.000315964725
3.40519304e-05
7.45427537e-07
3.18174824e-07
3.17340028e-07
3.18191138e-07
7.47114576e-07
3.40743767e-05
0.000316005838
0.000896610644
0.00162865296
0.00256001116
0.00381298217
0.00569009715
0.00901010271
0.0166541427
0.0412139328
0.0419970686
0.0166508687
0.00900941854
0.00568971205
0.0038127248
0.00255984932
0.0016285859
0.000896632348
0.000316071604
3.40865984e-05
7.46309235e-07
3.181378e-07
3.1730095e-07
3.18152996e-07
7.47908727e-07
3.41082385e-05
0.000316110314
0.000896643275
0.00162861702
0.00255991834
0.00381285086
0.00568994661
0.00900995968
0.0166540648
0.04121229
0.0419973043
0.0166508018
0.00900928455
0.00568956642
0.00381259627
0.00255975853
0.00162855206
0.000896667166
0.000316177005
3.41208975e-05
7.47182933e-07
3.18100754e-07
3.17261863e-07
3.18113939e-07
7.48621909e-07
3.41410358e-05
0.000316211369
0.000896671089
0.00162857406
0.00255981602
0.00381270778
0.00568978206
0.00900979962
0.0166539623
0.0412106492
0.041997517
0.0166507326
0.00900914549
0.0056894146
0.00381246145
0.00255966244
0.00162851445
0.000896699778
0.000316281113
3.41548671e-05
7.48048951e-07
3.18063685e-07
3.17222766e-07
3.18073393e-07
7.4920242e-07
3.41722734e-05
0.000316307709
0.000896691165
0.00162851935
0.00255969684
0.00381254124
0.00568958501
0.00900959175
0.0166537809
0.0412090349
0.0419977079
0.0166506555
0.00900899996
0.00568925657
0.00381232044
0.00255956051
0.00162847181
0.000896728745
0.000316383532
3.41884911e-05
7.48908442e-07
3.18026611e-07
3.17183655e-07
3.18030695e-07
7.49580019e-07
3.42012183e-05
0.000316398017
0.000896702127
0.00162845218
0.00255955973
0.00381234539
0.00568933203
0.00900925766
0.016653236
0.0412075111
)
;

boundaryField
{
    inlet
    {
        type            fixedValue;
        value           uniform 0.00015;
    }
    outlet
    {
        type            inletOutlet;
        phi             phi.gas;
        inletValue      uniform 0.00015;
        value           nonuniform List<scalar>
25
(
0.0419977079
0.0166506555
0.00900899996
0.00568925657
0.00381232044
0.00255956051
0.00162847181
0.000896728745
0.000316383532
3.41884911e-05
7.48908442e-07
3.18026611e-07
3.17183655e-07
3.18030695e-07
7.49580019e-07
3.42012183e-05
0.000316398017
0.000896702127
0.00162845218
0.00255955973
0.00381234539
0.00568933203
0.00900925766
0.016653236
0.0412075111
)
;
    }
    wall1
    {
        type            epsilonWallFunction;
        Cmu             0.09;
        kappa           0.41;
        E               9.8;
        value           nonuniform List<scalar>
75
(
0.0419653487
0.0419654611
0.0419655923
0.0419657345
0.0419658904
0.0419660621
0.0419662513
0.0419664589
0.0419666856
0.0419669319
0.0419671978
0.0419674835
0.0419677891
0.0419681141
0.0419684586
0.0419688221
0.0419692042
0.0419696049
0.0419700232
0.0419704591
0.0419709118
0.0419713809
0.0419718657
0.0419723657
0.0419728802
0.0419734084
0.0419739497
0.0419745034
0.0419750684
0.0419756439
0.041976229
0.0419768227
0.0419774241
0.0419780322
0.0419786458
0.0419792639
0.0419798857
0.0419805098
0.0419811354
0.0419817613
0.0419823865
0.0419830099
0.0419836305
0.0419842474
0.0419848596
0.0419854659
0.0419860657
0.0419866579
0.0419872417
0.0419878161
0.0419883805
0.0419889341
0.0419894764
0.0419900064
0.041990524
0.0419910282
0.0419915189
0.0419919955
0.0419924579
0.0419929055
0.0419933381
0.0419937558
0.041994158
0.041994545
0.0419949164
0.0419952723
0.0419956127
0.0419959371
0.0419962458
0.0419965377
0.0419968125
0.0419970686
0.0419973043
0.041997517
0.0419977079
)
;
    }
    wall2
    {
        type            epsilonWallFunction;
        Cmu             0.09;
        kappa           0.41;
        E               9.8;
        value           nonuniform List<scalar>
75
(
0.0412932979
0.0412946744
0.0412931691
0.041291993
0.0412907793
0.0412895822
0.0412883945
0.0412872181
0.0412860534
0.0412849008
0.0412837604
0.0412826323
0.0412815163
0.0412804123
0.04127932
0.041278239
0.0412771691
0.0412761096
0.0412750601
0.0412740201
0.0412729893
0.0412719668
0.041270952
0.0412699444
0.0412689431
0.0412679477
0.0412669571
0.0412659706
0.0412649874
0.0412640063
0.0412630267
0.0412620473
0.0412610673
0.0412600856
0.0412591009
0.0412581125
0.0412571191
0.0412561197
0.041255113
0.0412540982