/*--------------------------------*- C++ -*----------------------------------*\
| =========                 |                                                 |
| \\      /  F ield         | OpenFOAM: The Open Source CFD Toolbox           |
|  \\    /   O peration     | Version:  dev                                   |
|   \\  /    A nd           | Web:      www.OpenFOAM.org                      |
|    \\/     M anipulation  |                                                 |
\*---------------------------------------------------------------------------*/
FoamFile
{
    version     2.0;
    format      ascii;
    class       volScalarField;
    location    "5";
    object      k.gas;
}
// * * * * * * * * * * * * * * * * * * * * * * * * * * * * * * * * * * * * * //

dimensions      [0 2 -2 0 0 0 0];

internalField   nonuniform List<scalar>
1875
(
0.00462107176
0.00438626956
0.00374943197
0.00318948512
0.00265007788
0.00210873544
0.00155763819
0.000999380105
0.000437422609
6.18234795e-05
2.45480096e-06
1.53774747e-06
1.53559851e-06
1.53778282e-06
2.4581472e-06
6.18671529e-05
0.000437499661
0.000999424453
0.00155767824
0.00210877998
0.00265012989
0.00318954586
0.00374950396
0.00438633354
0.004571605
0.00462108001
0.0043862956
0.00374948253
0.00318956223
0.00265018444
0.00210887482
0.00155781334
0.000999587425
0.000437662772
6.19068601e-05
2.45723454e-06
1.5376735e-06
1.53551808e-06
1.53770914e-06
2.4605873e-06
6.19502584e-05
0.00043773639
0.000999623379
0.0015578403
0.00210890166
0.00265021434
0.00318959656
0.00374952379
0.0043863214
0.00457170683
0.00462108965
0.00438632821
0.00374954243
0.00318965211
0.00265030808
0.00210903651
0.00155801683
0.000999829141
0.000437941745
6.20049219e-05
2.46011586e-06
1.53758609e-06
1.53542303e-06
1.53762176e-06
2.46346801e-06
6.20483039e-05
0.00043801521
0.000999864844
0.00155804345
0.00210906293
0.00265033751
0.00318968594
0.00374958321
0.00438635348
0.00457159572
0.00462110009
0.00438636537
0.00374960694
0.00318974621
0.00265043536
0.00210920102
0.00155822206
0.0010000713
0.000438218602
6.21029206e-05
2.46300935e-06
1.53749845e-06
1.53532771e-06
1.53753422e-06
2.46636941e-06
6.21463629e-05
0.000438292085
0.00100010701
0.00155824872
0.00210922749
0.00265046484
0.00318978013
0.0037496478
0.00438639067
0.00457150893
0.00462111154
0.00438640674
0.00374967579
0.00318984435
0.00265056602
0.00210936803
0.00155842858
0.00100031305
0.000438492824
6.22006216e-05
2.46590791e-06
1.53741078e-06
1.53523232e-06
1.5374467e-06
2.46927999e-06
6.22441621e-05
0.000438566369
0.00100034879
0.00155845526
0.00210939454
0.00265059555
0.00318987831
0.00374971672
0.0043864321
0.00457141936
0.00462112415
0.00438645207
0.00374974884
0.00318994642
0.00265070008
0.0021095376
0.00155863647
0.00100055435
0.000438764767
6.22981095e-05
2.46881189e-06
1.53732297e-06
1.53513679e-06
1.53735907e-06
2.47219822e-06
6.23417743e-05
0.000438838407
0.00100059012
0.00155866319
0.00210956414
0.00265072965
0.00318998044
0.00374978983
0.00438647745
0.00457133101
0.00462113804
0.0043865011
0.00374982588
0.00319005232
0.00265083745
0.00210970966
0.00155884566
0.00100079504
0.000439034672
6.23954306e-05
2.4717231e-06
1.53723499e-06
1.53504106e-06
1.53727129e-06
2.47512513e-06
6.24392387e-05
0.00043910843
0.00100083085
0.00155887241
0.00210973624
0.00265086704
0.00319008636
0.00374986692
0.00438652648
0.00457124337
0.00462115329
0.00438655354
0.00374990668
0.00319016182
0.00265097793
0.00210988405
0.00155905592
0.00100103485
0.000439302607
6.24925733e-05
2.47464064e-06
1.53714686e-06
1.53494514e-06
1.53718335e-06
2.47805939e-06
6.25365405e-05
0.000439376502
0.00100107071
0.0015590827
0.00210991065
0.00265100756
0.00319019589
0.00374994777
0.00438657893
0.00457115655
0.00462116993
0.00438660917
0.00374999099
0.00319027469
0.00265112131
0.00211006048
0.00155926693
0.00100127348
0.000439568528
6.25894886e-05
2.47756254e-06
1.5370586e-06
1.53484906e-06
1.53709528e-06
2.4809987e-06
6.26336275e-05
0.000439642576
0.00100130938
0.00155929373
0.00211008711
0.00265115096
0.00319030879
0.00375003211
0.00438663457
0.00457107059
0.00462118802
0.00438666776
0.00375007858
0.00319039071
0.00265126735
0.0021102387
0.00155947834
0.00100151059
0.000439832365
6.26861197e-05
2.48048655e-06
1.53697026e-06
1.53475288e-06
1.53700714e-06
2.48394065e-06
6.27304413e-05
0.000439906582
0.00100154653
0.00155950518
0.00211026536
0.00265129702
0.00319042483
0.00375011974
0.00438669316
0.00457098553
0.00462120754
0.00438672912
0.00375016926
0.00319050969
0.00265141584
0.00211041845
0.00155968988
0.00100174593
0.000440094076
6.27824226e-05
2.48341087e-06
1.53688187e-06
1.53465664e-06
1.53691897e-06
2.48688328e-06
6.28269358e-05
0.000440168473
0.00100178192
0.00155971674
0.00211044513
0.00265144551
0.00319054382
0.00375021044
0.00438675452
0.00457090136
0.00462122852
0.00438679308
0.00375026281
0.00319063142
0.00265156656
0.0021105995
0.00155990126
0.00100197933
0.000440353661
6.28783702e-05
2.4863342e-06
1.53679345e-06
1.53456036e-06
1.53683076e-06
2.4898252e-06
6.29230829e-05
0.00044042825
0.00100201535
0.00155992814
0.0021106262
0.00265159625
0.00319066556
0.00375030403
0.00438681847
0.0045708181
0.00462125095
0.00438685945
0.00375035909
0.00319075572
0.00265171932
0.00211078162
0.00156011224
0.00100221061
0.000440611151
6.29739509e-05
2.48925575e-06
1.53670501e-06
1.53446405e-06
1.53674253e-06
2.49276555e-06
6.30188696e-05
0.000440685942
0.00100224668
0.00156013915
0.00211080833
0.00265174902
0.00319078989
0.00375040033
0.00438688484
0.00457073574
0.00462127482
0.00438692807
0.0037504579
0.00319088242
0.00265187393
0.0021109646
0.00156032262
0.00100243968
0.000440866594
6.30691617e-05
2.49217503e-06
1.53661655e-06
1.53436771e-06
1.53665428e-06
2.4957038e-06
6.3114292e-05
0.000440941595
0.0010024758
0.00156034955
0.00211099134
0.00265190365
0.00319091659
0.00375049916
0.00438695346
0.00457065426
0.00462130011
0.00438699878
0.00375055905
0.00319101132
0.00265203018
0.00211114821
0.00156053218
0.00100266646
0.000441120041
6.31640039e-05
2.4950917e-06
1.53652806e-06
1.53427134e-06
1.53656601e-06
2.49863954e-06
6.32093505e-05
0.000441195261
0.00100270261
0.00156055913
0.00211117497
0.00265205991
0.0031910455
0.00375060034
0.00438702417
0.00457057363
0.0046213268
0.00438707142
0.00375066235
0.00319114221
0.00265218785
0.00211133223
0.00156074072
0.00100289086
0.00044137154
6.32584791e-05
2.49800549e-06
1.53643954e-06
1.53417494e-06
1.53647771e-06
2.5015725e-06
6.33040458e-05
0.000441446985
0.00100292707
0.00156076771
0.00211135901
0.00265221759
0.00319117641
0.00375070367
0.0043870968
0.00457049385
0.00462135486
0.00438714581
0.00375076761
0.00319127489
0.0026523467
0.00211151641
0.00156094805
0.00100311283
0.000441621128
6.33525874e-05
2.50091609e-06
1.536351e-06
1.53407851e-06
1.53638938e-06
2.50450232e-06
6.33983772e-05
0.000441696804
0.00100314908
0.00156097505
0.00211154322
0.00265237647
0.0031913091
0.00375080895
0.00438717119
0.00457041488
0.00462138427
0.00438722179
0.00375087463
0.00319140912
0.00265250651
0.00211170052
0.00156115396
0.00100333229
0.000441868834
6.34463271e-05
2.50382316e-06
1.53626241e-06
1.53398204e-06
1.53630102e-06
2.50742865e-06
6.34923425e-05
0.000441944747
0.00100336859
0.00156118099
0.00211172736
0.00265253629
0.00319144334
0.00375091601
0.00438724717
0.00457033668
0.00462141498
0.00438729918
0.0037509832
0.00319154468
0.00265266702
0.00211188432
0.00156135826
0.00100354921
0.000442114683
6.35396952e-05
2.50672636e-06
1.5361738e-06
1.53388553e-06
1.53621262e-06
2.51035112e-06
6.35859378e-05
0.000442190839
0.00100358555
0.00156138533
0.00211191118
0.00265269683
0.00319157892
0.00375102461
0.00438732456
0.00457025921
0.00462144698
0.00438737782
0.0037510931
0.00319168132
0.00265282797
0.00211206753
0.00156156079
0.00100376352
0.000442358695
6.36326876e-05
2.50962531e-06
1.53608515e-06
1.533789e-06
1.5361242e-06
2.51326935e-06
6.36791586e-05
0.000442435094
0.00100379992
0.00156158789
0.00211209443
0.0026528578
0.00319171559
0.00375113454
0.0043874032
0.00457018245
0.00462148022
0.00438745752
0.00375120411
0.0031918188
0.00265298911
0.00211224995
0.00156176137
0.0010039752
0.000442600882
6.37253e-05
2.51251967e-06
1.53599648e-06
1.53369245e-06
1.53603575e-06
2.51618297e-06
6.37720002e-05
0.00044267753
0.00100401165
0.0015617885
0.00211227688
0.00265301898
0.0031918531
0.00375124558
0.00438748291
0.00457010636
0.00462151466
0.00438753811
0.00375131601
0.00319195687
0.00265315019
0.00211243133
0.00156195983
0.00100418421
0.000442841262
6.38175288e-05
2.51540911e-06
1.53590779e-06
1.53359587e-06
1.53594727e-06
2.51909162e-06
6.38644584e-05
0.000442918161
0.0010042207
0.00156198701
0.00211245829
0.00265318009
0.0031919912
0.00375135753
0.00438756352
0.00457003089
0.00462155026
0.00438761943
0.00375142857
0.00319209528
0.00265331094
0.00211261143
0.00156215603
0.00100439052
0.000443079849
6.39093706e-05
2.51829332e-06
1.53581907e-06
1.53349928e-06
1.53585877e-06
2.52199503e-06
6.39565293e-05
0.000443157002
0.00100442707
0.00156218324
0.00211263844
0.00265334088
0.00319212964
0.00375147012
0.00438764485
0.00456995598
0.00462158696
0.00438770128
0.00375154154
0.00319223376
0.0026534711
0.00211279004
0.00156234985
0.00100459413
0.000443316663
6.40008232e-05
2.52117207e-06
1.53573032e-06
1.53340267e-06
1.53577025e-06
2.52489292e-06
6.40482105e-05
0.00044339407
0.00100463074
0.00156237711
0.0021128171
0.00265350108
0.00319226816
0.00375158316
0.00438772672
0.0045698816
0.00462162473
0.00438778348
0.00375165471
0.00319237205
0.00265363043
0.00211296695
0.00156254115
0.00100479502
0.000443551719
6.40918853e-05
2.52404515e-06
1.53564155e-06
1.53330604e-06
1.5356817e-06
2.52778509e-06
6.41395005e-05
0.000443629383
0.00100483169
0.00156256845
0.00211299406
0.00265366047
0.00319240651
0.00375169638
0.00438780894
0.00456980769
0.00462166351
0.00438786584
0.00375176783
0.00319250991
0.00265378867
0.00211314195
0.00156272982
0.0010049932
0.000443785039
6.41825566e-05
2.52691238e-06
1.53555275e-06
1.53320939e-06
1.53559314e-06
2.53067136e-06
6.42303984e-05
0.000443862959
0.00100502994
0.00156275717
0.00211316911
0.00265381876
0.00319254442
0.00375180956
0.00438789133
0.00456973421
0.00462170325
0.00438794816
0.00375188065
0.00319264705
0.00265394557
0.00211331485
0.00156291577
0.00100518866
0.000444016642
6.42728372e-05
2.52977363e-06
1.53546393e-06
1.53311273e-06
1.53550454e-06
2.53355156e-06
6.43209045e-05
0.000444094819
0.00100522546
0.00156294316
0.00211334206
0.00265397573
0.00319268163
0.00375192245
0.00438797369
0.00456966109
0.0046217439
0.00438803027
0.00375199293
0.00319278324
0.0026541009
0.00211348545
0.00156309887
0.00100538142
0.000444246546
6.43627279e-05
2.53262878e-06
1.53537508e-06
1.53301604e-06
1.53541591e-06
2.53642561e-06
6.44110191e-05
0.000444324981
0.00100541829
0.00156312632
0.00211351273
0.00265413112
0.00319281789
0.0037520348
0.00438805584
0.00456958827
0.00462178538
0.00438811198
0.00375210442
0.00319291819
0.0026542544
0.00211365358
0.00156327907
0.00100557148
0.000444474772
6.44522291e-05
2.53547771e-06
1.53528619e-06
1.53291933e-06
1.53532726e-06
2.53929338e-06
6.45007426e-05
0.000444553464
0.00100560842
0.00156330656
0.00211368091
0.00265428469
0.00319295291
0.00375214637
0.00438813758
0.00456951568
0.00462182763
0.00438819305
0.00375221485
0.00319305164
0.00265440584
0.00211381904
0.00156345627
0.00100575885
0.000444701335
6.45413412e-05
2.53832032e-06
1.53519727e-06
1.5328226e-06
1.53523855e-06
2.54215475e-06
6.45900751e-05
0.000444780283
0.00100579585
0.00156348381
0.00211384644
0.0026544362
0.00319308644
0.0037522569
0.00438821871
0.00456944326
0.00462187058
0.00438827331
0.00375232399
0.00319318333
0.00265455497
0.00211398169
0.00156363038
0.00100594354
0.000444926246
6.46300633e-05
2.54115648e-06
1.53510831e-06
1.53272584e-06
1.53514982e-06
2.54500959e-06
6.46790159e-05
0.000445005452
0.00100598061
0.00156365797
0.00211400916
0.00265458542
0.00319321822
0.00375236614
0.00438829903
0.00456937094
0.00462191417
0.00438835255
0.00375243159
0.003193313
0.00265470159
0.00211414133
0.00156380133
0.00100612554
0.000445149516
6.4718394e-05
2.54398602e-06
1.53501931e-06
1.53262904e-06
1.53506105e-06
2.54785775e-06
6.47675633e-05
0.000445228977
0.00100616269
0.00156382898
0.00211416887
0.00265473211
0.00319334797
0.00375247382
0.00438837834
0.00456929863
0.00462195831
0.00438843057
0.00375253736
0.00319344038
0.00265484542
0.00211429782
0.00156396905
0.00100630488
0.00044537115
6.48063303e-05
2.54680876e-06
1.53493026e-06
1.53253222e-06
1.53497223e-06
2.55069903e-06
6.48557141e-05
0.000445450864
0.00100634211
0.00156399678
0.00211432543
0.00265487605
0.00319347545
0.0037525797
0.00438845643
0.00456922628
0.00462200296
0.00438850718
0.00375264109
0.00319356521
0.00265498628
0.00211445099
0.00156413348
0.00100648155
0.000445591147
6.4893868e-05
2.54962448e-06
1.53484118e-06
1.53243536e-06
1.53488337e-06
2.55353322e-06
6.49434643e-05
0.000445671115
0.00100651885
0.00156416126
0.00211447869
0.002655017
0.00319360039
0.00375268354
0.00438853312
0.00456915381
0.004622048
0.00438858217
0.00375274251
0.00319368726
0.00265512395
0.0021146007
0.00156429455
0.00100665555
0.000445809507
6.49810023e-05
2.55243292e-06
1.53475205e-06
1.53233848e-06
1.53479447e-06
2.55636004e-06
6.50308089e-05
0.000445889726
0.00100669293
0.00156432238
0.00211462848
0.00265515476
0.00319372255
0.00375278509
0.0043886082
0.00456908111
0.00462209338
0.00438865537
0.00375284139
0.00319380627
0.00265525819
0.00211474681
0.00156445217
0.00100682688
0.000446026224
6.50677272e-05
2.55523381e-06
1.53466288e-06
1.53224157e-06
1.53470554e-06
2.55917925e-06
6.51177418e-05
0.000446106691
0.00100686433
0.00156448008
0.00211477467
0.00265528912
0.00319384168
0.00375288411
0.00438868149
0.00456900814
0.00462213902
0.0043887266
0.00375293752
0.00319392202
0.00265538884
0.00211488918
0.00156460631
0.00100699554
0.000446241292
6.51540365e-05
2.55802687e-06
1.53457368e-06
1.53214464e-06
1.53461656e-06
2.56199055e-06
6.52042569e-05
0.000446322006
0.00100703308
0.00156463429
0.00211491714
0.00265541987
0.00319395755
0.00375298038
0.00438875281
0.00456893479
0.00462218483
0.00438879568
0.00375303067
0.00319403428
0.0026555157
0.00211502768
0.00156475693
0.00100716153
0.000446454703
6.52399238e-05
2.5608118e-06
1.53448444e-06
1.53204769e-06
1.53452755e-06
2.56479365e-06
6.52903477e-05
0.000446535662
0.00100719916
0.00156478497
0.00211505572
0.00265554683
0.00319406993
0.00375307366
0.004388822
0.00456886101
0.00462223076
0.00438886245
0.00375312064
0.00319414284
0.00265563858
0.00211516221
0.00156490395
0.00100732485
0.00044666645
6.53253831e-05
2.56358836e-06
1.53439517e-06
1.53195072e-06
1.53443851e-06
2.56758829e-06
6.53760081e-05
0.000446747653
0.00100736256
0.00156493206
0.00211519034
0.00265566983
0.00319417863
0.00375316377
0.00438888889
0.00456878668
0.0046222767
0.00438892678
0.00375320722
0.0031942475
0.00265575732
0.00211529264
0.00156504734
0.0010074855
0.000446876528
6.54104089e-05
2.56635625e-06
1.53430586e-06
1.53185374e-06
1.53434943e-06
2.57037419e-06
6.54612326e-05
0.000446957972
0.0010075233
0.00156507553
0.00211532087
0.00265578869
0.00319428344
0.00375325051
0.00438895333
0.00456871176
0.0046223226
0.0043889885
0.00375329026
0.0031943481
0.00265587177
0.00211541889
0.00156518707
0.00100764349
0.000447084931
6.54949959e-05
2.56911525e-06
1.53421652e-06
1.53175675e-06
1.53426032e-06
2.57315113e-06
6.55460161e-05
0.000447166613
0.00100768137
0.00156521533
0.00211544721
0.00265590328
0.00319438418
0.00375333371
0.00438901519
0.00456863615
0.00462236836
0.00438904751
0.00375336958
0.00319444445
0.00265598179
0.00211554086
0.0015653231
0.00100779882
0.000447291654
6.55791401e-05
2.57186515e-06
1.53412714e-06
1.53165973e-06
1.53417117e-06
2.5759189e-06
6.56303543e-05
0.000447373573
0.00100783679
0.00156535143
0.00211556929
0.00265601343
0.00319448067
0.00375341319
0.00438907433
0.00456855977
0.00462241392
0.00438910369
0.00375344503
0.0031945364
0.00265608726
0.00211565848
0.00156545542
0.00100795149
0.000447496695
6.56628376e-05
2.57460575e-06
1.53403773e-06
1.53156269e-06
1.53408199e-06
2.57867729e-06
6.57142435e-05
0.000447578847
0.00100798954
0.00156548382
0.00211568701
0.00265611902
0.00319457278
0.00375348881
0.00438913064
0.00456848255
0.00462245921
0.00438915693
0.00375351647
0.00319462381
0.00265618805
0.00211577168
0.00156558399
0.0010081015
0.000447700049
6.57460851e-05
2.57733689e-06
1.53394827e-06
1.53146564e-06
1.53399278e-06
2.58142613e-06
6.57976802e-05
0.000447782433
0.00100813964
0.00156561246
0.00211580031
0.00265621994
0.00319466035
0.00375356042
0.00438918403
0.00456840441
0.00462250414
0.00438920715
0.00375358377
0.00319470655
0.00265628406
0.00211588039
0.00156570878
0.00100824887
0.000447901713
6.58288792e-05
2.58005837e-06
1.53385878e-06
1.53136855e-06
1.53390351e-06
2.58416526e-06
6.58806613e-05
0.000447984325
0.00100828711
0.00156573735
0.00211590912
0.00265631609
0.00319474324
0.00375362791
0.00438923438
0.00456832528
0.00462254865
0.00438925425
0.00375364685
0.0031947845
0.00265637519
0.00211598456
0.00156582981
0.0010083936
0.000448101685
6.59112166e-05
2.58277004e-06
1.53376923e-06
1.53127144e-06
1.53381419e-06
2.58689451e-06
6.59631836e-05
0.000448184523
0.00100843193
0.00156585845
0.00211601339
0.00265640737
0.00319482136
0.00375369116
0.00438928164
0.00456824507
0.00462259268
0.00438929819
0.00375370559
0.00319485757
0.00265646137
0.00211608413
0.00156594704
0.00100853568
0.000448299955
6.59930934e-05
2.5854717e-06
1.53367962e-06
1.5311743e-06
1.53372482e-06
2.58961369e-06
6.60452429e-05
0.000448383018
0.00100857411
0.00156597576
0.00211611307
0.00265649368
0.00319489459
0.00375375008
0.00438932571
0.00456816372
0.00462263615
0.00438933888
0.0037537599
0.00319492566
0.00265654251
0.00211617906
0.00156606046
0.00100867513
0.000448496517
6.60745052e-05
2.58816315e-06
1.53358997e-06
1.53107712e-06
1.5336354e-06
2.59232259e-06
6.6126835e-05
0.000448579801
0.00100871366
0.00156608928
0.00211620811
0.00265657496
0.00319496285
0.00375380459
0.00438936657
0.00456808117
0.004622679
0.0043893763
0.00375380974
0.0031949887
0.00265661856
0.00211626933
0.00156617008
0.00100881194
0.000448691359
6.61554465e-05
2.59084417e-06
1.53350025e-06
1.5309799e-06
1.53354591e-06
2.59502098e-06
6.62079546e-05
0.000448774862
0.00100885056
0.00156619897
0.00211629849
0.00265665115
0.00319502606
0.00375385462
0.00438940414
0.00456799734
0.00462272117
0.0043894104
0.00375385504
0.00319504663
0.00265668946
0.00211635489
0.00156627586
0.0010089461
0.000448884467
6.62359109e-05
2.59351448e-06
1.53341046e-06
1.53088265e-06
1.53345636e-06
2.59770861e-06
6.62885951e-05
0.000448968188
0.00100898483
0.00156630484
0.00211638417
0.0026567222
0.00319508416
0.00375390011
0.0043894384
0.00456791218
0.0046227626
0.00438944117
0.00375389576
0.00319509939
0.00265675517
0.00211643573
0.00156637782
0.00100907763
0.000449075826
6.63158911e-05
2.59617379e-06
1.53332061e-06
1.53078534e-06
1.53336675e-06
2.60038518e-06
6.63687492e-05
0.00044915976
0.00100911645
0.00156640688
0.00211646512
0.00265678805
0.00319513709
0.00375394102
0.00438946934
0.00456782561
0.00462280324
0.0043894686
0.00375393187
0.00319514696
0.00265681565
0.00211651182
0.00156647595
0.0010092065
0.000449265414
6.63953783e-05
2.59882177e-06
1.53323069e-06
1.53068799e-06
1.53327705e-06
2.60305036e-06
6.64484084e-05
0.000449349561
0.00100924542
0.0015665051
0.00211654133
0.00265684868
0.00319518484
0.00375397733
0.00438949693
0.00456773759
0.00462284305
0.00438949269
0.00375396337
0.00319518931
0.00265687089
0.00211658316
0.00156657023
0.0010093327
0.000449453211
6.64743634e-05
2.60145804e-06
1.53314069e-06
1.53059059e-06
1.53318729e-06
2.60570377e-06
6.65275634e-05
0.000449537568
0.00100937173
0.00156659948
0.00211661277
0.00265690407
0.00319522737
0.00375400903
0.00438952119
0.00456764807
0.00462288195
0.00438951346
0.00375399026
0.00319522643
0.00265692087
0.00211664973
0.00156666068
0.00100945626
0.000449639192
6.65528358e-05
2.60408222e-06
1.53305063e-06
1.53049314e-06
1.53309747e-06
2.60834502e-06
6.66062038e-05
0.000449723757
0.00100949538
0.00156669002
0.00211667946
0.0026569542
0.00319526466
0.00375403612
0.00438954212
0.004567557
0.00462291994
0.00438953092
0.00375401257
0.00319525832
0.0026569656
0.00211671155
0.00156674729
0.00100957713
0.000449823331
6.66307844e-05
2.60669388e-06
1.53296049e-06
1.53039567e-06
1.53300757e-06
2.61097369e-06
6.66843184e-05
0.000449908102
0.00100961636
0.00156677672
0.0021167414
0.00265699908
0.00319529673
0.00375405861
0.00438955975
0.00456746432
0.00462295696
0.00438954511
0.00375403029
0.00319528501
0.00265700508
0.00211676862
0.00156683007
0.00100969532
0.000450005602
6.67081975e-05
2.60929257e-06
1.53287028e-06
1.53029814e-06
1.5329176e-06
2.61358932e-06
6.67618956e-05
0.000450090576
0.00100973466
0.0015668596
0.00211679858
0.00265703871
0.0031953236
0.00375407654
0.00438957411
0.00456737001
0.00462299298
0.00438955608
0.0037540435
0.00319530653
0.00265703935
0.00211682095
0.00156690903
0.00100981081
0.000450185977
6.67850631e-05
2.61187783e-06
1.53278e-06
1.53020057e-06
1.53282755e-06
2.61619145e-06
6.68389233e-05
0.000450271152
0.00100985026
0.00156693864
0.00211685103
0.00265707312
0.00319534529
0.00375408995
0.00438958525
0.00456727403
0.00462302796
0.00438956389
0.00375405225
0.00319532292
0.00265706842
0.00211686858
0.00156698417
0.00100992362
0.000450364427
6.68613684e-05
2.61444918e-06
1.53268966e-06
1.53010296e-06
1.53273744e-06
2.61877959e-06
6.69153887e-05
0.0004504498
0.00100996316
0.00156701389
0.00211689876
0.00265710234
0.00319536186
0.00375409889
0.00438959323
0.00456717633
0.0046230619
0.00438956861
0.0037540566
0.00319533424
0.00265709235
0.00211691151
0.00156705552
0.00101003371
0.000450540925
6.69371009e-05
2.61700614e-06
1.53259924e-06
1.53000531e-06
1.53264725e-06
2.62135322e-06
6.69912791e-05
0.000450626493
0.00101007336
0.00156708532
0.00211694181
0.00265712641
0.00319537335
0.00375410344
0.00438959811
0.0045670769
0.00462309476
0.0043895703
0.00375405664
0.00319534056
0.00265711119
0.00211694981
0.00156712307
0.00101014109
0.000450715439
6.70122474e-05
2.61954819e-06
1.53250875e-06
1.52990764e-06
1.53255701e-06
2.62391178e-06
6.70665812e-05
0.0004508012
0.00101018084
0.00156715298
0.00211698022
0.00265714539
0.00319537985
0.00375410367
0.00438959997
0.00456697572
0.00462312652
0.00438956905
0.00375405246
0.00319534197
0.00265712499
0.00211698349
0.00156718688
0.00101024575
0.000450887943
6.70867953e-05
2.62207484e-06
1.5324182e-06
1.52980993e-06
1.53246668e-06
2.62645472e-06
6.71412815e-05
0.000450973892
0.00101028561
0.00156721687
0.00211701402
0.00265715934
0.00319538142
0.00375409968
0.00438959889
0.00456687276
0.00462315717
0.00438956496
0.00375404417
0.00319533856
0.00265713384
0.00211701264
0.00156724695
0.00101034768
0.000451058408
6.71607309e-05
2.62458558e-06
1.53232758e-06
1.52971219e-06
1.53237629e-06
2.62898139e-06
6.72153662e-05
0.000451144538
0.00101038765
0.00156727702
0.00211704327
0.00265716832
0.00319537816
0.00375409157
0.00438959495
0.00456676801
0.0046231867
0.0043895581
0.00375403186
0.00319533043
0.00265713784
0.00211703729
0.00156730331
0.00101044691
0.000451226809
6.72340419e-05
2.62707988e-06
1.53223688e-06
1.52961442e-06
1.53228582e-06
2.63149106e-06
6.7288821e-05
0.000451313111
0.00101048696
0.00156733347
0.00211706802
0.00265717244
0.00319537019
0.00375407944
0.00438958826
0.00456666147
0.00462321511
0.0043895486
0.00375401568
0.00319531768
0.00265713704
0.00211705753
0.00156735601
0.00101054341
0.000451393115
6.73067146e-05
2.62955722e-06
1.53214613e-06
1.52951662e-06
1.53219526e-06
2.63398279e-06
6.73616297e-05
0.000451479574
0.00101058353
0.00156738622
0.00211708833
0.00265717176
0.00319535758
0.00375406341
0.00438957891
0.00456655311
0.00462324237
0.00438953657
0.00375399575
0.00319530047
0.0026571316
0.00211707342
0.00156740509
0.0010106372
0.00045155731
6.73787373e-05
2.63201711e-06
1.5320553e-06
1.52941879e-06
1.53210462e-06
2.63645548e-06
6.74337764e-05
0.000451643899
0.00101067736
0.00156743533
0.00211710427
0.00265716638
0.00319534049
0.00375404363
0.00438956701
0.00456644295
0.0046232685
0.00438952211
0.0037539722
0.00319527892
0.00265712159
0.00211708504
0.00156745057
0.00101072827
0.000451719365
6.74500964e-05
2.634459e-06
1.5319644e-06
1.52932094e-06
1.53201385e-06
2.63890733e-06
6.75052393e-05
0.000451806041
0.00101076844
0.0015674808
0.00211711589
0.00265715641
0.003195319
0.0037540202
0.00438955266
0.00456633098
0.00462329349
0.00438950535
0.00375394522
0.00319525319
0.00265710717
0.00211709252
0.00156749256
0.00101081668
0.000451879276
6.75207822e-05
2.6368824e-06
1.53187344e-06
1.52922305e-06
1.53192293e-06
2.64133595e-06
6.75759959e-05
0.000451965967
0.00101085675
0.00156752267
0.00211712328
0.00265714194
0.00319529327
0.00375399326
0.00438953598
0.00456621724
0.0046233173
0.00438948642
0.00375391494
0.00319522343
0.00265708847
0.00211709594
0.00156753109
0.00101090242
0.000452037023
6.75907827e-05
2.63928683e-06
1.5317824e-06
1.52912515e-06
1.5318318e-06
2.64373713e-06
6.76460092e-05
0.000452123601
0.00101094225
0.00156756094
0.00211712646
0.00265712307
0.00319526339
0.00375396293
0.00438951708
0.00456610174
0.00462333996
0.00438946548
0.00375388157
0.00319518986
0.0026570657
0.00211709547
0.00156756631
0.00101098561
0.000452192634
6.76600927e-05
2.64167182e-06
1.53169129e-06
1.52902722e-06
1.53174034e-06
2.64610438e-06
6.77152332e-05
0.000452278882
0.00101102492
0.00156759564
0.00211712551
0.00265709987
0.00319522949
0.00375392935
0.00438949604
0.00456598455
0.00462336139
0.00438944267
0.00375384528
0.00319515267
0.002657039
0.00211709127
0.00156759832
0.00101106628
0.000452346123
6.7728706e-05
2.64403698e-06
1.53160012e-06
1.52892926e-06
1.53164837e-06
2.64842606e-06
6.77835868e-05
0.00045243166
0.00101110462
0.00156762664
0.00211712035
0.00265707234
0.00319519162
0.00375389256
0.00438947297
0.00456586574
0.00462338156
0.0043894182
0.00375380634
0.00319511212
0.00265700868
0.00211708357
0.0015676273
0.0010111446
0.000452497593
6.7796632e-05
2.64638212e-06
1.53150886e-06
1.52883127e-06
1.53155555e-06
2.6506826e-06
6.7850948e-05
0.000452581758
0.00101118115
0.0015676538
0.00211711091
0.00265704045
0.00319514974
0.00375385258
0.00438944791
0.0045657455
0.00462340036
0.00438939206
0.00375376486
0.00319506842
0.00265697497
0.00211707262
0.00156765347
0.00101122073
0.000452647096
6.78638712e-05
2.64870701e-06
1.53141754e-06
1.52873325e-06
1.53146132e-06
2.65283791e-06
6.79170741e-05
0.000452728726
0.00101125406
0.00156767669
0.00211709678
0.00265700379
0.00319510347
0.00375380904
0.00438942056
0.00456562416
0.00462341767
0.00438936449
0.00375372107
0.00319502172
0.00265693798
0.00211705857
0.00156767712
0.00101129506
0.000452794782
6.79304373e-05
2.65101169e-06
1.53132613e-06
1.52863521e-06
1.53136467e-06
2.65482966e-06
6.7981547e-05
0.000452871841
0.00101132268
0.00156769439
0.00211707676
0.00265696109
0.00319505155
0.00375376084
0.00438939029
0.00456550296
0.00462343328
0.00438933577
0.00375367468
0.00319497146
0.00265689697
0.00211704068
0.00156769762
0.0010113672
0.000452940898
6.79964018e-05
2.65329697e-06
1.53123466e-06
1.52853713e-06
1.53126414e-06
2.65655664e-06
6.8043695e-05
0.00045300987
0.00101138469
0.00156770385
0.00211704707
0.00265690769
0.00319498867
0.0037537023
0.00438935264
0.00456538372
0.00462344729
0.00438930497
0.00375362531
0.00319491759
0.00265685189
0.00211701852
0.00156771398
0.00101143589
0.00045308495
6.8061729e-05
2.65556494e-06
1.53114316e-06
1.52843901e-06
1.53115796e-06
2.65788137e-06
6.81025004e-05
0.000453141446
0.00101143895
0.00156770486
0.00211700824
0.00265684375
0.00319491234
0.0037536247
0.00438929011
0.00456527117
)
;

boundaryField
{
    inlet
    {
        type            fixedValue;
        value           uniform 3.75e-05;
    }
    outlet
    {
        type            inletOutlet;
        phi             phi.gas;
        inletValue      uniform 3.75e-05;
        value           nonuniform List<scalar>
25
(
0.00462344729
0.00438930497
0.00375362531
0.00319491759
0.00265685189
0.00211701852
0.00156771398
0.00101143589
0.00045308495
6.8061729e-05
2.65556494e-06
1.53114316e-06
1.52843901e-06
1.53115796e-06
2.65788137e-06
6.81025004e-05
0.000453141446
0.00101143895
0.00156770486
0.00211700824
0.00265684375
0.00319491234
0.0037536247
0.00438929011
0.00456527117
)
;
    }
    wall1
    {
        type            kqRWallFunction;
        value           nonuniform List<scalar>
75
(
0.00462107176
0.00462108001
0.00462108965
0.00462110009
0.00462111154
0.00462112415
0.00462113804
0.00462115329
0.00462116993
0.00462118802
0.00462120754
0.00462122852
0.00462125095
0.00462127482
0.00462130011
0.0046213268
0.00462135486
0.00462138427
0.00462141498
0.00462144698
0.00462148022
0.00462151466
0.00462155026
0.00462158696
0.00462162473
0.00462166351
0.00462170325
0.0046217439
0.00462178538
0.00462182763
0.00462187058
0.00462191417
0.00462195831
0.00462200296
0.004622048
0.00462209338
0.00462213902
0.00462218483
0.00462223076
0.0046222767
0.0046223226
0.00462236836
0.00462241392
0.00462245921
0.00462250414
0.00462254865
0.00462259268
0.00462263615
0.004622679
0.00462272117
0.0046227626
0.00462280324
0.00462284305
0.00462288195
0.00462291994
0.00462295696
0.00462299298
0.00462302796
0.0046230619
0.00462309476
0.00462312652
0.00462315717
0.0046231867
0.00462321511
0.00462324237
0.0046232685
0.00462329349
0.0046233173
0.00462333996
0.00462336139
0.00462338156
0.00462340036
0.00462341767
0.00462343328
0.00462344729
)
;
    }
    wall2
    {
        type            kqRWallFunction;
        value           nonuniform List<scalar>
75
(
0.004571605
0.00457170683
0.00457159572
0.00457150893
0.00457141936
0.00457133101
0.00457124337
0.00457115655
0.00457107059
0.00457098553
0.00457090136
0.0045708181
0.00457073574
0.00457065426
0.00457057363
0.00457049385
0.00457041488
0.00457033668
0.00457025921
0.00457018245
0.00457010636
0.00457003089
0.00456995598
0.0045698816
0.00456980769
0.00456973421
0.00456966109
0.00456958827
0.00456951568
0.00456944326
0.00456937094
0.00456929863
0.00456922628