/*--------------------------------*- C++ -*----------------------------------*\
| =========                 |                                                 |
| \\      /  F ield         | OpenFOAM: The Open Source CFD Toolbox           |
|  \\    /   O peration     | Version:  dev                                   |
|   \\  /    A nd           | Web:      www.OpenFOAM.org                      |
|    \\/     M anipulation  |                                                 |
\*---------------------------------------------------------------------------*/
FoamFile
{
    version     2.0;
    format      ascii;
    class       volScalarField;
    location    "5";
    object      nut.gas;
}
// * * * * * * * * * * * * * * * * * * * * * * * * * * * * * * * * * * * * * //

dimensions      [0 2 -1 0 0 0 0];

internalField   nonuniform List<scalar>
1875
(
4.57970072e-05
0.000104055692
0.000140550021
0.000161102808
0.00016607229
0.000156791223
0.000134780553
0.000101355879
5.65336369e-05
1.11269037e-05
8.07158245e-07
6.63581651e-07
6.63114519e-07
6.63586084e-07
8.07693224e-07
1.11355832e-05
5.65453949e-05
0.000101361291
0.000134782775
0.000156791723
0.000166071639
0.000161100955
0.000140546252
0.00010403924
4.55512541e-05
4.57970482e-05
0.000104056695
0.000140552884
0.000161108237
0.000166080845
0.000156803348
0.000134796519
0.000101375584
5.65602419e-05
1.11407537e-05
8.07621315e-07
6.63580218e-07
6.63111766e-07
6.63584732e-07
8.08166213e-07
1.1149471e-05
5.65718313e-05
0.000101380543
0.000134798101
0.000156803089
0.000166079387
0.000161105598
0.000140548423
0.000104040749
4.55517649e-05
4.5797096e-05
0.000104057889
0.000140556218
0.000161114544
0.000166090796
0.000156817478
0.000134815167
0.000101398659
5.65913414e-05
1.11570852e-05
8.08170287e-07
6.63578535e-07
6.63108522e-07
6.63583113e-07
8.08725781e-07
1.116587e-05
5.66029923e-05
0.000101403621
0.000134816726
0.000156817189
0.000166089312
0.000161111885
0.000140551743
0.000104041877
4.55512112e-05
4.57971478e-05
0.000104059157
0.000140559658
0.00016112098
0.000166100887
0.000156831739
0.000134833917
0.000101421773
5.66223165e-05
1.1173433e-05
8.0872239e-07
6.63576854e-07
6.63105265e-07
6.63581496e-07
8.09287932e-07
1.1182289e-05
5.66340366e-05
0.000101426753
0.000134835471
0.000156831441
0.000166099393
0.000161118314
0.000140555174
0.000104043149
4.55507791e-05
4.57972045e-05
0.0001040605
0.000140563201
0.000161127538
0.000166111099
0.000156846106
0.000134852725
0.000101444856
5.66531021e-05
1.11897563e-05
8.09276309e-07
6.63575173e-07
6.63102001e-07
6.63579881e-07
8.09851249e-07
1.11986838e-05
5.66648911e-05
0.000101449854
0.000134854273
0.000156845795
0.000166109595
0.000161124862
0.000140558707
0.000104044453
4.5550333e-05
4.57972671e-05
0.00010406192
0.000140566849
0.000161134218
0.00016612144
0.000156860583
0.000134871602
0.000101467914
5.66837329e-05
1.12060682e-05
8.09832402e-07
6.63573486e-07
6.63098739e-07
6.63578254e-07
8.10416141e-07
1.12150667e-05
5.66955908e-05
0.00010147293
0.000134873146
0.00015686026
0.000166119924
0.000161131532
0.000140562343
0.000104045847
4.5549893e-05
4.5797336e-05
0.000104063412
0.000140570599
0.000161141021
0.000166131908
0.000156875172
0.000134890543
0.000101490943
5.67142307e-05
1.12223755e-05
8.10390947e-07
6.63571804e-07
6.63095465e-07
6.63576637e-07
8.10982947e-07
1.12314441e-05
5.67261569e-05
0.000101495978
0.000134892081
0.000156874838
0.000166130379
0.000161138324
0.000140566081
0.000104047314
4.55494565e-05
4.57974116e-05
0.000104064973
0.000140574448
0.000161147939
0.000166142492
0.00015688986
0.000134909534
0.000101513926
5.67445976e-05
1.12386753e-05
8.10951823e-07
6.63570126e-07
6.63092186e-07
6.6357501e-07
8.11551613e-07
1.12478127e-05
5.67565914e-05
0.00010151898
0.000134911067
0.000156889515
0.000166140953
0.00016114523
0.000140569919
0.000104048848
4.55490242e-05
4.57974941e-05
0.0001040666
0.000140578393
0.000161154963
0.000166153182
0.00015690463
0.000134928551
0.000101536846
5.67748242e-05
1.12549583e-05
8.11514693e-07
6.63568454e-07
6.63088906e-07
6.63573384e-07
8.1212185e-07
1.12641634e-05
5.67868848e-05
0.000101541919
0.000134930079
0.000156904275
0.000166151631
0.000161152243
0.00014057385
0.000104050447
4.55485961e-05
4.57975838e-05
0.000104068289
0.000140582426
0.000161162087
0.000166163966
0.000156919465
0.000134947567
0.000101559676
5.68048976e-05
1.12712141e-05
8.12079138e-07
6.63566776e-07
6.63085613e-07
6.63571757e-07
8.12693297e-07
1.12804855e-05
5.68170243e-05
0.000101564769
0.000134949094
0.000156919099
0.000166162404
0.000161159356
0.000140577871
0.000104052106
4.55481725e-05
4.57976806e-05
0.000104070036
0.000140586545
0.000161169305
0.000166174833
0.000156934349
0.000134966567
0.000101582401
5.68348092e-05
1.12874344e-05
8.12644833e-07
6.63565105e-07
6.63082328e-07
6.63570133e-07
8.13265652e-07
1.12967707e-05
5.68470007e-05
0.000101587512
0.000134968089
0.000156933973
0.000166173259
0.000161166562
0.000140581976
0.000104053824
4.55477533e-05
4.57977846e-05
0.000104071839
0.000140590746
0.00016117661
0.000166185774
0.000156949268
0.00013498553
0.00010160501
5.68645546e-05
1.13036138e-05
8.13211521e-07
6.63563434e-07
6.63079038e-07
6.63568507e-07
8.13838701e-07
1.13130136e-05
5.68768101e-05
0.000101610138
0.00013498705
0.000156948884
0.00016618419
0.000161173856
0.000140586165
0.000104055595
4.55473386e-05
4.57978959e-05
0.000104073693
0.000140595026
0.000161183997
0.000166196781
0.000156964211
0.000135004444
0.000101627493
5.68941344e-05
1.13197494e-05
8.13779049e-07
6.63561766e-07
6.63075747e-07
6.63566882e-07
8.14412323e-07
1.13292113e-05
5.69064525e-05
0.000101632638
0.000135005963
0.000156963817
0.000166195186
0.000161181233
0.000140590432
0.000104057419
4.55469284e-05
4.57980142e-05
0.000104075595
0.00014059938
0.000161191462
0.000166207846
0.000156979165
0.000135023297
0.000101649842
5.69235503e-05
1.13358399e-05
8.14347297e-07
6.63560103e-07
6.63072454e-07
6.63565257e-07
8.14986433e-07
1.13453625e-05
5.693593e-05
0.000101655006
0.000135024813
0.000156978763
0.000166206241
0.000161188687
0.000140594773
0.00010405929
4.55465225e-05
4.57981396e-05
0.000104077543
0.000140603805
0.000161198999
0.000166218959
0.000156994121
0.000135042079
0.000101672056
5.69528052e-05
1.13518846e-05
8.14916186e-07
6.63558438e-07
6.63069158e-07
6.6356363e-07
8.15560965e-07
1.13614667e-05
5.69652452e-05
0.000101677236
0.000135043592
0.000156993711
0.000166217344
0.000161196213
0.000140599185
0.000104061204
4.5546121e-05
4.57982719e-05
0.000104079532
0.000140608295
0.000161206601
0.000166230113
0.000157009067
0.000135060777
0.000101694129
5.69819018e-05
1.13678831e-05
8.15485641e-07
6.63556773e-07
6.63065864e-07
6.63562011e-07
8.16135884e-07
1.13775235e-05
5.69944009e-05
0.000101699328
0.000135062289
0.000157008648
0.000166228488
0.000161203804
0.000140603663
0.00010406316
4.55457235e-05
4.5798411e-05
0.000104081559
0.000140612847
0.000161214261
0.000166241296
0.000157023988
0.000135079381
0.000101716058
5.70108412e-05
1.13838346e-05
8.16055572e-07
6.63555121e-07
6.63062566e-07
6.63560385e-07
8.16711113e-07
1.13935321e-05
5.70233984e-05
0.000101721272
0.000135080893
0.000157023563
0.000166239663
0.000161211453
0.0001406082
0.000104065154
4.55453302e-05
4.57985568e-05
0.000104083621
0.000140617452
0.000161221971
0.0001662525
0.000157038876
0.000135097882
0.000101737835
5.70396244e-05
1.1399738e-05
8.16625897e-07
6.63553459e-07
6.63059269e-07
6.63558763e-07
8.17286575e-07
1.14094914e-05
5.70522383e-05
0.000101743067
0.000135099393
0.000157038445
0.000166250857
0.000161219153
0.000140612794
0.00010406718
4.55449406e-05
4.5798709e-05
0.000104085711
0.000140622107
0.000161229723
0.000166263713
0.000157053718
0.000135116268
0.00010175946
5.70682515e-05
1.14155923e-05
8.17196514e-07
6.63551805e-07
6.63055964e-07
6.63557141e-07
8.1786219e-07
1.14254005e-05
5.70809214e-05
0.00010176471
0.00013511778
0.00015705328
0.000166262061
0.000161226895
0.000140617436
0.000104069237
4.55445548e-05
4.57988676e-05
0.000104087829
0.000140626804
0.000161237508
0.000166274923
0.000157068499
0.000135134532
0.000101780928
5.70967227e-05
1.14313961e-05
8.17767318e-07
6.63550144e-07
6.63052663e-07
6.63555521e-07
8.18437875e-07
1.14412579e-05
5.71094468e-05
0.000101786195
0.000135136044
0.000157068055
0.000166273263
0.00016123467
0.00014062212
0.000104071319
4.55441724e-05
4.57990324e-05
0.000104089968
0.000140631536
0.000161245316
0.000166286118
0.000157083211
0.000135152666
0.000101802235
5.71250366e-05
1.14471479e-05
8.1833822e-07
6.6354849e-07
6.63049366e-07
6.63553897e-07
8.1901354e-07
1.14570624e-05
5.71378143e-05
0.000101807518
0.000135154179
0.000157082761
0.000166284452
0.00016124247
0.000140626839
0.000104073422
4.55437933e-05
4.57992031e-05
0.000104092124
0.000140636297
0.00016125314
0.000166297291
0.00015709784
0.000135170659
0.000101823378
5.71531932e-05
1.14628466e-05
8.1890912e-07
6.63546839e-07
6.63046061e-07
6.63552269e-07
8.19589093e-07
1.14728127e-05
5.71660231e-05
0.000101828675
0.000135172175
0.000157097385
0.000166295616
0.000161250284
0.000140631587
0.000104075543
4.55434174e-05
4.57993795e-05
0.000104094295
0.000140641079
0.000161260968
0.000166308427
0.000157112377
0.000135188507
0.000101844353
5.71811917e-05
1.1478491e-05
8.19479932e-07
6.63545184e-07
6.63042761e-07
6.63550643e-07
8.20164465e-07
1.14885076e-05
5.71940728e-05
0.000101849668
0.000135190022
0.000157111918
0.000166306744
0.000161258103
0.000140636357
0.000104077677
4.55430442e-05
4.57995615e-05
0.000104096475
0.000140645875
0.000161268792
0.000166319515
0.00015712681
0.000135206201
0.000101865159
5.72090325e-05
1.14940802e-05
8.20050582e-07
6.63543525e-07
6.63039457e-07
6.63549022e-07
8.20739582e-07
1.15041463e-05
5.72219635e-05
0.000101870489
0.000135207718
0.000157126348
0.000166317825
0.000161265918
0.000140641141
0.00010407982
4.55426736e-05
4.57997487e-05
0.000104098659
0.000140650677
0.0001612766
0.000166330544
0.000157141131
0.000135223735
0.000101885793
5.72367148e-05
1.15096134e-05
8.20620996e-07
6.63541876e-07
6.63036151e-07
6.63547392e-07
8.2131438e-07
1.15197281e-05
5.72496949e-05
0.000101891141
0.000135225256
0.000157140665
0.00016632885
0.000161273718
0.000140645931
0.000104081967
4.55423054e-05
4.57999409e-05
0.000104100843
0.000140655477
0.000161284385
0.000166341507
0.00015715533
0.000135241105
0.000101906256
5.72642398e-05
1.15250901e-05
8.21191113e-07
6.63540213e-07
6.6303284e-07
6.63545767e-07
8.21888807e-07
1.15352524e-05
5.72772676e-05
0.000101911621
0.000135242629
0.000157154861
0.000166339805
0.000161281494
0.000140650719
0.000104084113
4.55419393e-05
4.58001379e-05
0.000104103023
0.000140660268
0.000161292133
0.000166352388
0.000157169398
0.000135258307
0.000101926545
5.72916072e-05
1.15405098e-05
8.21760881e-07
6.63538558e-07
6.63029537e-07
6.63544139e-07
8.22462806e-07
1.15507188e-05
5.73046817e-05
0.000101931925
0.000135259833
0.000157168926
0.000166350681
0.000161289234
0.000140655498
0.000104086255
4.5541575e-05
4.58003394e-05
0.000104105193
0.000140665041
0.000161299837
0.000166363181
0.000157183327
0.000135275334
0.00010194666
5.73188175e-05
1.15558722e-05
8.2233025e-07
6.63536901e-07
6.63026226e-07
6.63542512e-07
8.23036342e-07
1.1566127e-05
5.73319378e-05
0.000101952056
0.000135276864
0.000157182853
0.000166361469
0.000161296931
0.000140660259
0.000104088387
4.55412122e-05
4.58005449e-05
0.00010410735
0.000140669787
0.000161307485
0.000166373872
0.00015719711
0.000135292184
0.0001019666
5.73458712e-05
1.15711769e-05
8.22899171e-07
6.63535237e-07
6.63022918e-07
6.63540884e-07
8.23609368e-07
1.15814767e-05
5.73590363e-05
0.000101972012
0.000135293718
0.000157196632
0.000166372155
0.000161304571
0.000140664993
0.000104090505
4.55408505e-05
4.58007543e-05
0.000104109488
0.000140674498
0.000161315066
0.000166384454
0.000157210736
0.000135308853
0.000101986364
5.73727687e-05
1.15864236e-05
8.23467598e-07
6.63533578e-07
6.63019605e-07
6.63539247e-07
8.24181839e-07
1.15967674e-05
5.73859777e-05
0.000101991792
0.00013531039
0.000157210256
0.000166382731
0.000161312145
0.000140669692
0.000104092603
4.55404896e-05
4.58009672e-05
0.000104111601
0.000140679165
0.000161322572
0.000166394914
0.0001572242
0.000135325336
0.000102005953
5.73995095e-05
1.16016117e-05
8.24035485e-07
6.63531916e-07
6.63016298e-07
6.63537612e-07
8.2475371e-07
1.16119989e-05
5.74127617e-05
0.000102011395
0.000135326876
0.000157223718
0.000166393187
0.000161319643
0.000140674348
0.000104094678
4.55401293e-05
4.58011833e-05
0.000104113685
0.00014068378
0.00016132999
0.000166405244
0.000157237492
0.000135341629
0.000102025363
5.74260936e-05
1.16167407e-05
8.24602769e-07
6.63530254e-07
6.63012983e-07
6.63535978e-07
8.25324936e-07
1.16271703e-05
5.74393876e-05
0.000102030822
0.000135343173
0.00015723701
0.000166403512
0.000161327054
0.000140678951
0.000104096722
4.5539769e-05
4.58014021e-05
0.000104115734
0.000140688332
0.00016133731
0.000166415432
0.000157250607
0.000135357729
0.000102044595
5.74525198e-05
1.16318097e-05
8.25169403e-07
6.6352858e-07
6.63009674e-07
6.63534342e-07
8.25895454e-07
1.1642281e-05
5.74658548e-05
0.000102050071
0.000135359279
0.000157250122
0.000166413697
0.000161334367
0.000140683493
0.000104098731
4.55394084e-05
4.58016233e-05
0.000104117746
0.000140692816
0.000161344521
0.000166425469
0.000157263536
0.000135373632
0.000102063647
5.74787871e-05
1.16468177e-05
8.25735317e-07
6.63526915e-07
6.63006355e-07
6.63532697e-07
8.26465211e-07
1.16573299e-05
5.74921624e-05
0.000102069139
0.000135375186
0.00015726305
0.000166423731
0.000161341573
0.000140687965
0.000104100702
4.55390473e-05
4.58018466e-05
0.000104119713
0.00014069722
0.000161351615
0.000166435348
0.000157276272
0.000135389335
0.000102082517
5.75048937e-05
1.16617635e-05
8.26300442e-07
6.63525241e-07
6.63003043e-07
6.63531048e-07
8.27034127e-07
1.16723159e-05
5.75183085e-05
0.000102088024
0.000135390892
0.000157275787
0.000166433605
0.000161348661
0.000140692359
0.000104102629
4.5538685e-05
4.58020714e-05
0.000104121631
0.000140701537
0.000161358581
0.000166445055
0.00015728881
0.000135404831
0.000102101205
5.75308382e-05
1.16766459e-05
8.26864706e-07
6.63523569e-07
6.62999723e-07
6.63529406e-07
8.27602145e-07
1.16872378e-05
5.75442913e-05
0.000102106726
0.000135406394
0.000157288324
0.000166443311
0.000161355621
0.000140696666
0.000104104506
4.55383213e-05
4.58022977e-05
0.000104123496
0.00014070576
0.000161365411
0.000166454587
0.000157301144
0.00013542012
0.000102119706
5.75566185e-05
1.16914636e-05
8.27428037e-07
6.63521891e-07
6.62996406e-07
6.63527749e-07
8.28169182e-07
1.17020943e-05
5.75701094e-05
0.000102125244
0.000135421688
0.000157300658
0.000166452838
0.000161362444
0.000140700878
0.00010410633
4.55379558e-05
4.58025247e-05
0.000104125304
0.000140709879
0.000161372092
0.000166463932
0.000157313264
0.000135435198
0.000102138022
5.75822328e-05
1.17062153e-05
8.27990348e-07
6.63520209e-07
6.62993087e-07
6.63526094e-07
8.28735172e-07
1.17168841e-05
5.75957607e-05
0.000102143576
0.000135436772
0.000157312778
0.00016646218
0.000161369119
0.000140704987
0.000104108097
4.5537588e-05
4.58027523e-05
0.000104127049
0.000140713889
0.000161378618
0.000166473083
0.000157325169
0.000135450062
0.000102156148
5.76076794e-05
1.17208997e-05
8.28551591e-07
6.63518525e-07
6.62989765e-07
6.6352444e-07
8.29300045e-07
1.17316059e-05
5.76212435e-05
0.000102161718
0.000135451641
0.000157324684
0.000166471328
0.000161375641
0.000140708986
0.000104109801
4.55372176e-05
4.580298e-05
0.00010412873
0.000140717781
0.000161384981
0.000166482032
0.000157336852
0.000135464707
0.000102174086
5.76329565e-05
1.17355156e-05
8.29111678e-07
6.63516831e-07
6.62986448e-07
6.63522775e-07
8.2986373e-07
1.17462587e-05
5.7646556e-05
0.000102179671
0.000135466293
0.000157336367
0.000166480276
0.000161381999
0.000140712868
0.00010411144
4.55368442e-05
4.58032075e-05
0.000104130341
0.000140721548
0.000161391173
0.000166490774
0.000157348308
0.000135479133
0.000102191835
5.76580628e-05
1.17500621e-05
8.2967056e-07
6.63515147e-07
6.62983128e-07
6.6352111e-07
8.30426176e-07
1.17608413e-05
5.76716971e-05
0.000102197433
0.000135480724
0.000157347824
0.000166489017
0.000161388186
0.000140716627
0.000104113009
4.55364673e-05
4.58034343e-05
0.00010413188
0.000140725187
0.000161397187
0.000166499302
0.000157359535
0.000135493338
0.00010220939
5.7682997e-05
1.17645383e-05
8.30228176e-07
6.63513445e-07
6.62979802e-07
6.63519439e-07
8.30987322e-07
1.1775353e-05
5.7696665e-05
0.000102215004
0.000135494935
0.000157359052
0.000166497542
0.000161394194
0.000140720254
0.000104114506
4.55360866e-05
4.58036601e-05
0.000104133344
0.000140728688
0.000161403015
0.00016650761
0.000157370526
0.00013550732
0.000102226753
5.77077578e-05
1.17789433e-05
8.30784477e-07
6.63511745e-07
6.62976476e-07
6.63517769e-07
8.31547117e-07
1.17897929e-05
5.77214592e-05
0.000102232381
0.000135508922
0.000157370045
0.000166505848
0.000161400019
0.000140723746
0.000104115926
4.55357017e-05
4.58038845e-05
0.000104134729
0.000140732049
0.000161408652
0.000166515694
0.000157381282
0.000135521077
0.000102243922
5.77323443e-05
1.17932764e-05
8.31339417e-07
6.63510042e-07
6.62973157e-07
6.63516095e-07
8.32105518e-07
1.18041603e-05
5.77460783e-05
0.000102249565
0.000135522684
0.0001573808
0.00016651393
0.000161405651
0.000140727096
0.000104117269
4.55353121e-05
4.58041072e-05
0.000104136033
0.000140735262
0.000161414093
0.000166523546
0.000157391796
0.000135534605
0.000102260897
5.77567555e-05
1.1807537e-05
8.31892944e-07
6.63508338e-07
6.62969826e-07
6.63514413e-07
8.32662479e-07
1.18184547e-05
5.77705214e-05
0.000102266555
0.00013553622
0.000157391316
0.000166521782
0.000161411086
0.0001407303
0.00010411853
4.55349177e-05
4.58043278e-05
0.000104137255
0.000140738324
0.00016141933
0.000166531166
0.000157402067
0.000135547907
0.000102277678
5.77809907e-05
1.18217245e-05
8.32445021e-07
6.6350662e-07
6.629665e-07
6.63512725e-07
8.33217962e-07
1.18326753e-05
5.77947876e-05
0.000102283351
0.000135549527
0.000157401588
0.0001665294
0.000161416319
0.000140733353
0.000104119709
4.55345179e-05
4.5804546e-05
0.000104138392
0.000140741232
0.00016142436
0.000166538546
0.00015741209
0.000135560979
0.000102294263
5.78050481e-05
1.18358379e-05
8.32995597e-07
6.63504899e-07
6.62963175e-07
6.63511025e-07
8.33771911e-07
1.18468214e-05
5.78188761e-05
0.00010229995
0.000135562606
0.000157411614
0.000166536779
0.000161421345
0.00014073625
0.000104120801
4.55341123e-05
4.58047615e-05
0.000104139441
0.000140743979
0.000161429178
0.000166545684
0.000157421866
0.000135573819
0.00010231065
5.78289265e-05
1.18498766e-05
8.33544618e-07
6.63503181e-07
6.62959846e-07
6.63509328e-07
8.34324285e-07
1.18608921e-05
5.78427845e-05
0.000102316352
0.000135575454
0.000157421392
0.000166543915
0.000161426158
0.000140738988
0.000104121807
4.55337008e-05
4.58049738e-05
0.000104140404
0.000140746565
0.000161433779
0.000166552577
0.000157431392
0.000135586428
0.00010232684
5.78526245e-05
1.18638396e-05
8.34092041e-07
6.6350145e-07
6.62956514e-07
6.63507626e-07
8.3487502e-07
1.18748866e-05
5.78665119e-05
0.000102332555
0.000135588069
0.000157430918
0.000166550807
0.000161430755
0.000140741565
0.000104122725
4.55332829e-05
4.58051828e-05
0.000104141277
0.000140748985
0.000161438162
0.00016655922
0.000157440664
0.000135598802
0.000102342829
5.78761396e-05
1.18777255e-05
8.34637797e-07
6.63499715e-07
6.62953184e-07
6.63505915e-07
8.35424071e-07
1.18888037e-05
5.78900561e-05
0.000102348561
0.000135600449
0.000157440194
0.00016655745
0.000161435134
0.000140743975
0.000104123553
4.55328583e-05
4.58053881e-05
0.000104142061
0.000140751238
0.000161442321
0.000166565613
0.000157449682
0.000135610943
0.000102358619
5.78994702e-05
1.18915333e-05
8.35181819e-07
6.63497974e-07
6.62949848e-07
6.63504205e-07
8.35971357e-07
1.19026421e-05
5.79134148e-05
0.000102364364
0.000135612596
0.000157449214
0.000166563841
0.000161439289
0.000140746218
0.000104124291
4.55324267e-05
4.58055895e-05
0.000104142753
0.000140753321
0.000161446256
0.000166571752
0.000157458443
0.000135622846
0.000102374206
5.79226131e-05
1.19052614e-05
8.35724031e-07
6.63496226e-07
6.62946512e-07
6.63502479e-07
8.36516821e-07
1.19164003e-05
5.79365857e-05
0.000102379965
0.000135624507
0.000157457978
0.000166569978
0.00016144322
0.000140748291
0.000104124938
4.55319879e-05
4.58057868e-05
0.000104143356
0.000140755232
0.000161449963
0.000166577634
0.000157466947
0.000135634511
0.000102389586
5.79455659e-05
1.19189082e-05
8.36264361e-07
6.63494471e-07
6.62943173e-07
6.63500747e-07
8.37060368e-07
1.19300767e-05
5.79595659e-05
0.00010239536
0.000135636179
0.000157466483
0.000166575861
0.000161446923
0.000140750193
0.000104125496
4.55315415e-05
4.58059797e-05
0.000104143869
0.000140756972
0.00016145344
0.000166583258
0.000157475191
0.000135645938
0.000102404763
5.79683255e-05
1.19324718e-05
8.36802719e-07
6.63492712e-07
6.62939827e-07
6.63499016e-07
8.37601915e-07
1.19436696e-05
5.79823523e-05
0.00010241055
0.000135647612
0.00015747473
0.000166581484
0.000161450395
0.000140751923
0.000104125962
4.55310875e-05
4.58061679e-05
0.000104144291
0.000140758539
0.000161456686
0.000166588624
0.000157483175
0.000135657123
0.00010241973
5.79908885e-05
1.19459505e-05
8.37339014e-07
6.63490944e-07
6.62936492e-07
6.63497273e-07
8.38141381e-07
1.19571771e-05
5.80049417e-05
0.00010242553
0.000135658804
0.000157482717
0.00016658685
0.000161453638
0.000140753479
0.000104126338
4.55306254e-05
4.58063514e-05
0.000104144624
0.000140759932
0.000161459702
0.000166593731
0.000157490898
0.000135668066
0.000102434487
5.80132518e-05
1.19593422e-05
8.37873149e-07
6.63489164e-07
6.62933149e-07
6.63495524e-07
8.38678663e-07
1.1970597e-05
5.8027331e-05
0.000102440301
0.000135669756
0.000157490442
0.000166591956
0.000161456649
0.000140754863
0.000104126624
4.55301551e-05
4.58065299e-05
0.000104144869
0.000140761152
0.000161462485
0.000166598577
0.000157498359
0.000135678768
0.00010244903
5.80354119e-05
1.19726448e-05
8.38405028e-07
6.63487383e-07
6.62929804e-07
6.63493759e-07
8.39213665e-07
1.19839276e-05
5.80495164e-05
0.000102454859
0.000135680463
0.000157497906
0.000166596801
0.000161459428
0.000140756074
0.000104126822
4.55296766e-05
4.58067033e-05
0.000104145026
0.000140762201
0.000161465037
0.000166603163
0.000157505558
0.000135689224
0.000102463361
5.80573653e-05
1.19858562e-05
8.3893455e-07
6.63485594e-07
6.62926456e-07
6.63491992e-07
8.39746284e-07
1.19971665e-05
5.80714947e-05
0.000102469202
0.000135690927
0.000157505107
0.000166601387
0.000161461976
0.000140757112
0.000104126932
4.55291894e-05
4.58068715e-05
0.000104145098
0.000140763079
0.000161467358
0.000166607489
0.000157512495
0.000135699437
0.000102477475
5.80791087e-05
1.19989744e-05
8.39461613e-07
6.63483796e-07
6.62923103e-07
6.63490219e-07
8.40276422e-07
1.20103117e-05
5.80932627e-05
0.000102483329
0.000135701145
0.000157512046
0.000166605712
0.000161464293
0.00014075798
0.000104126956
4.55286936e-05
4.58070343e-05
0.000104145086
0.000140763788
0.00016146945
0.000166611558
0.00015751917
0.000135709402
0.000102491371
5.81006385e-05
1.2011997e-05
8.39986106e-07
6.6348199e-07
6.62919754e-07
6.63488443e-07
8.40803959e-07
1.20233609e-05
5.81148163e-05
0.000102497237
0.000135711121
0.000157518724
0.000166609779
0.000161466381
0.000140758679
0.000104126895
4.55281891e-05
4.58071917e-05
0.000104144991
0.00014076433
0.000161471314
0.000166615367
0.000157525584
0.000135719124
0.000102505045
5.8121951e-05
1.20249219e-05
8.40507928e-07
6.63480171e-07
6.62916404e-07
6.63486647e-07
8.41328789e-07
1.20363119e-05
5.81361521e-05
0.000102510927
0.000135720848
0.000157525141
0.000166613588
0.000161468241
0.00014075921
0.000104126752
4.55276757e-05
4.58073437e-05
0.000104144817
0.000140764708
0.000161472953
0.000166618919
0.000157531737
0.0001357286
0.000102518499
5.8143043e-05
1.20377469e-05
8.41026972e-07
6.63478349e-07
6.62913053e-07
6.63484849e-07
8.41850804e-07
1.20491623e-05
5.81572667e-05
0.000102524393
0.000135730329
0.000157531297
0.00016661714
0.000161469874
0.000140759578
0.000104126529
4.55271534e-05
4.58074901e-05
0.000104144565
0.000140764923
0.000161474368
0.000166622219
0.000157537631
0.000135737828
0.000102531731
5.81639114e-05
1.20504698e-05
8.41543125e-07
6.63476509e-07
6.62909702e-07
6.63483041e-07
8.42369871e-07
1.206191e-05
5.81781567e-05
0.000102537637
0.000135739565
0.000157537193
0.000166620438
0.000161471285
0.000140759783
0.000104126228
4.5526622e-05
4.58076308e-05
0.000104144237
0.00014076498
0.000161475563
0.000166625266
0.000157543269
0.000135746811
0.000102544738
5.81845525e-05
1.20630884e-05
8.42056277e-07
6.63474675e-07
6.62906347e-07
6.63481219e-07
8.42885864e-07
1.20745523e-05
5.81988181e-05
0.000102550653
0.000135748554
0.000157542832
0.000166623485
0.000161472475
0.000140759829
0.000104125851
4.55260817e-05
4.5807766e-05
0.000104143837
0.000140764882
0.000161476541
0.000166628065
0.000157548651
0.000135755551
0.00010255752
5.82049645e-05
1.20756006e-05
8.42566329e-07
6.63472821e-07
6.6290299e-07
6.63479393e-07
8.43398636e-07
1.20870868e-05
5.82192472e-05
0.000102563443
0.000135757296
0.000157548214
0.000166626281
0.000161473449
0.000140759721
0.000104125402
4.55255323e-05
4.58078955e-05
0.000104143367
0.000140764633
0.000161477307
0.000166630618
0.000157553778
0.000135764044
0.000102570075
5.82251434e-05
1.20880043e-05
8.43073164e-07
6.63470957e-07
6.62899638e-07
6.63477545e-07
8.43907997e-07
1.20995104e-05
5.82394397e-05
0.000102576005
0.000135765791
0.000157553341
0.000166628832
0.00016147421
0.000140759462
0.000104124884
4.5524974e-05
4.58080194e-05
0.000104142829
0.000140764236
0.000161477863
0.000166632929
0.000157558656
0.000135772297
0.000102582406
5.82450887e-05
1.21002977e-05
8.43576679e-07
6.63469089e-07
6.62896272e-07
6.63475683e-07
8.44413729e-07
1.211182e-05
5.82593921e-05
0.000102588335
0.00013577404
0.000157558215
0.000166631138
0.000161474761
0.000140759057
0.000104124299
4.55244067e-05
4.58081374e-05
0.000104142227
0.000140763697
0.000161478215
0.000166635002
0.000157563286
0.000135780308
0.000102594511
5.82647981e-05
1.21124789e-05
8.44076774e-07
6.63467205e-07
6.62892919e-07
6.63473808e-07
8.44915483e-07
1.21240109e-05
5.82790972e-05
0.000102600429
0.000135782042
0.000157562836
0.000166633207
0.000161475109
0.00014075851
0.000104123653
4.55238307e-05
4.58082497e-05
0.000104141564
0.000140763018
0.000161478369
0.000166636845
0.000157567676
0.000135788084
0.000102606397
5.82842745e-05
1.2124547e-05
8.44573343e-07
6.63465312e-07
6.6288955e-07
6.634719e-07
8.45412795e-07
1.21360778e-05
5.82985503e-05
0.000102612287
0.000135789796
0.00015756721
0.000166635038
0.000161475258
0.000140757828
0.00010412295
4.55232463e-05
4.5808356e-05
0.000104140841
0.000140762207
0.00016147833
0.000166638459
0.000157571829
0.000135795632
0.000102618067
5.83035192e-05
1.21365008e-05
8.45066309e-07
6.63463412e-07
6.62886196e-07
6.63469946e-07
8.4590487e-07
1.21480116e-05
5.83177388e-05
0.000102623898
0.000135797296
0.000157571331
0.000166636638
0.000161475216
0.000140757018
0.000104122198
4.55226538e-05
4.58084559e-05
0.000104140062
0.000140761266
0.000161478104
0.000166639857
0.000157575756
0.000135802956
0.000102629531
5.83225437e-05
1.21483421e-05
8.45555628e-07
6.63461497e-07
6.62882828e-07
6.63467935e-07
8.46390451e-07
1.21597999e-05
5.8336651e-05
0.000102635251
0.000135804537
0.000157575202
0.000166638008
0.000161474988
0.00014075609
0.000104121406
4.55220541e-05
4.58085491e-05
0.000104139229
0.0001407602
0.000161477697
0.000166641044
0.000157579464
0.00013581007
0.000102640801
5.83413542e-05
1.21600708e-05
8.46041246e-07
6.63459577e-07
6.62879461e-07
6.63465824e-07
8.4686725e-07
1.21714174e-05
5.83552516e-05
0.000102646318
0.000135811498
0.000157578812
0.000166639149
0.000161474583
0.000140755059
0.000104120596
4.55214489e-05
4.58086349e-05
0.00010413834
0.000140759009
0.00016147711
0.000166642021
0.00015758296
0.000135816991
0.000102651905
5.83599692e-05
1.217169e-05
8.46523172e-07
6.63457636e-07
6.62876097e-07
6.63463536e-07
8.47331399e-07
1.21828221e-05
5.83734908e-05
0.000102657064
0.000135818148
0.00015758213
0.000166640046
0.000161474005
0.000140753945
0.000104119801
4.55208445e-05
4.58087123e-05
0.00010413741
0.000140757703
0.000161476338
0.00016664277
0.000157586214
0.000135823679
0.000102662816
5.83784184e-05
1.21832112e-05
8.47001564e-07
6.63455691e-07
6.62872724e-07
6.63460986e-07
8.47776742e-07
1.21939502e-05
5.8391289e-05
0.000102667355
0.00013582435
0.000157585047
0.000166640627
0.000161473241
0.000140752802
0.000104119149
4.55202499e-05
4.58087818e-05
0.000104136431
0.000140756274
0.000161475379
0.000166643278
0.000157589189
0.000135830072
0.000102673446
5.83966472e-05
1.21946273e-05
8.47476442e-07
6.63453738e-07
6.62869349e-07
6.63458043e-07
8.48194974e-07
1.22046983e-05
5.84085371e-05
0.000102677115
0.000135830128
0.000157587707
0.000166641167
0.000161472706
0.000140752202
0.000104119589
4.55196887e-05
)
;

boundaryField
{
    inlet
    {
        type            calculated;
        value           uniform 8.4375e-07;
    }
    outlet
    {
        type            calculated;
        value           nonuniform List<scalar>
25
(
4.58087818e-05
0.000104136431
0.000140756274
0.000161475379
0.000166643278
0.000157589189
0.000135830072
0.000102673446
5.83966472e-05
1.21946273e-05
8.47476442e-07
6.63453738e-07
6.62869349e-07
6.63458043e-07
8.48194974e-07
1.22046983e-05
5.84085371e-05
0.000102677115
0.000135830128
0.000157587707
0.000166641167
0.000161472706
0.000140752202
0.000104119589
4.55196887e-05
)
;
    }
    wall1
    {
        type            nutkWallFunction;
        Cmu             0.09;
        kappa           0.41;
        E               9.8;
        value           uniform 0;
    }
    wall2
    {
        type            nutkWallFunction;
        Cmu             0.09;
        kappa           0.41;
        E               9.8;
        value           uniform 0;
    }
    defaultFaces
    {
        type            empty;
    }
}


// ************************************************************************* //
