/*--------------------------------*- C++ -*----------------------------------*\
| =========                 |                                                 |
| \\      /  F ield         | OpenFOAM: The Open Source CFD Toolbox           |
|  \\    /   O peration     | Version:  dev                                   |
|   \\  /    A nd           | Web:      www.OpenFOAM.org                      |
|    \\/     M anipulation  |                                                 |
\*---------------------------------------------------------------------------*/
FoamFile
{
    version     2.0;
    format      ascii;
    class       volScalarField;
    location    "5";
    object      p;
}
// * * * * * * * * * * * * * * * * * * * * * * * * * * * * * * * * * * * * * //

dimensions      [1 -1 -2 0 0 0 0];

internalField   nonuniform List<scalar>
1875
(
119348.073
119348.087
119348.115
119348.156
119348.207
119348.266
119348.332
119348.403
119348.476
119348.549
119348.644
119348.772
119348.933
119349.127
119349.354
119349.616
119349.899
119350.184
119350.472
119350.765
119351.065
119351.376
119351.699
119352.037
119352.376
119096.454
119096.466
119096.491
119096.529
119096.578
119096.64
119096.714
119096.8
119096.898
119097.01
119097.138
119097.282
119097.444
119097.624
119097.822
119098.036
119098.265
119098.507
119098.761
119099.025
119099.3
119099.584
119099.877
119100.18
119100.503
118844.579
118844.591
118844.616
118844.655
118844.706
118844.77
118844.847
118844.937
118845.04
118845.157
118845.288
118845.432
118845.591
118845.764
118845.95
118846.151
118846.364
118846.59
118846.828
118847.078
118847.34
118847.612
118847.895
118848.19
118848.509
118592.451
118592.464
118592.489
118592.527
118592.579
118592.643
118592.721
118592.811
118592.915
118593.032
118593.161
118593.304
118593.46
118593.629
118593.811
118594.005
118594.212
118594.432
118594.664
118594.908
118595.164
118595.432
118595.712
118596.005
118596.324
118340.069
118340.082
118340.107
118340.145
118340.197
118340.261
118340.338
118340.428
118340.531
118340.647
118340.776
118340.917
118341.071
118341.238
118341.417
118341.609
118341.814
118342.031
118342.26
118342.502
118342.756
118343.023
118343.302
118343.594
118343.913
118087.434
118087.446
118087.471
118087.51
118087.561
118087.625
118087.701
118087.791
118087.894
118088.009
118088.137
118088.277
118088.43
118088.596
118088.774
118088.965
118089.168
118089.384
118089.613
118089.854
118090.107
118090.373
118090.652
118090.945
118091.264
117834.546
117834.558
117834.583
117834.621
117834.672
117834.736
117834.813
117834.902
117835.004
117835.119
117835.246
117835.386
117835.539
117835.704
117835.882
117836.072
117836.275
117836.491
117836.719
117836.96
117837.213
117837.479
117837.758
117838.051
117838.371
117581.406
117581.419
117581.444
117581.482
117581.533
117581.596
117581.673
117581.762
117581.864
117581.978
117582.105
117582.245
117582.397
117582.562
117582.74
117582.93
117583.133
117583.348
117583.577
117583.817
117584.071
117584.337
117584.616
117584.909
117585.229
117328.016
117328.028
117328.053
117328.091
117328.142
117328.205
117328.282
117328.371
117328.473
117328.587
117328.714
117328.854
117329.006
117329.171
117329.348
117329.539
117329.741
117329.957
117330.185
117330.426
117330.679
117330.945
117331.225
117331.518
117331.839
117074.374
117074.387
117074.412
117074.45
117074.5
117074.564
117074.64
117074.729
117074.831
117074.945
117075.072
117075.212
117075.364
117075.529
117075.706
117075.897
117076.099
117076.315
117076.543
117076.784
117077.037
117077.304
117077.583
117077.877
117078.198
116820.482
116820.494
116820.52
116820.557
116820.608
116820.671
116820.748
116820.837
116820.938
116821.053
116821.18
116821.319
116821.471
116821.636
116821.814
116822.004
116822.207
116822.422
116822.65
116822.891
116823.145
116823.411
116823.69
116823.984
116824.305
116566.34
116566.352
116566.377
116566.415
116566.465
116566.529
116566.605
116566.694
116566.796
116566.91
116567.037
116567.176
116567.328
116567.493
116567.671
116567.861
116568.063
116568.278
116568.506
116568.747
116569.001
116569.267
116569.547
116569.84
116570.161
116311.947
116311.959
116311.984
116312.022
116312.072
116312.136
116312.212
116312.301
116312.402
116312.517
116312.643
116312.783
116312.935
116313.099
116313.277
116313.467
116313.669
116313.884
116314.112
116314.353
116314.606
116314.872
116315.151
116315.445
116315.766
116057.304
116057.316
116057.341
116057.379
116057.429
116057.492
116057.568
116057.657
116057.759
116057.873
116057.999
116058.139
116058.29
116058.455
116058.632
116058.822
116059.024
116059.239
116059.467
116059.707
116059.96
116060.226
116060.505
116060.798
116061.119
115802.411
115802.423
115802.448
115802.486
115802.536
115802.599
115802.675
115802.764
115802.865
115802.979
115803.105
115803.244
115803.396
115803.56
115803.737
115803.927
115804.129
115804.343
115804.57
115804.811
115805.063
115805.329
115805.607
115805.9
115806.221
115547.269
115547.281
115547.306
115547.343
115547.394
115547.457
115547.532
115547.621
115547.722
115547.836
115547.962
115548.101
115548.252
115548.416
115548.592
115548.781
115548.983
115549.197
115549.424
115549.664
115549.916
115550.181
115550.459
115550.751
115551.071
115291.877
115291.889
115291.914
115291.952
115292.002
115292.065
115292.14
115292.229
115292.33
115292.443
115292.569
115292.707
115292.858
115293.022
115293.198
115293.387
115293.588
115293.801
115294.028
115294.267
115294.519
115294.783
115295.06
115295.352
115295.671
115036.238
115036.25
115036.274
115036.312
115036.362
115036.425
115036.5
115036.588
115036.689
115036.802
115036.927
115037.065
115037.216
115037.379
115037.555
115037.743
115037.943
115038.156
115038.382
115038.62
115038.872
115039.135
115039.412
115039.703
115040.021
114780.35
114780.362
114780.387
114780.424
114780.474
114780.537
114780.612
114780.7
114780.8
114780.913
114781.038
114781.175
114781.325
114781.488
114781.663
114781.851
114782.05
114782.263
114782.488
114782.725
114782.976
114783.239
114783.514
114783.804
114784.122
114524.216
114524.228
114524.253
114524.29
114524.339
114524.402
114524.477
114524.564
114524.664
114524.776
114524.901
114525.038
114525.188
114525.349
114525.524
114525.711
114525.91
114526.121
114526.346
114526.582
114526.832
114527.094
114527.368
114527.657
114527.973
114267.836
114267.848
114267.872
114267.909
114267.959
114268.021
114268.095
114268.182
114268.282
114268.394
114268.518
114268.654
114268.803
114268.965
114269.138
114269.324
114269.523
114269.733
114269.957
114270.192
114270.441
114270.701
114270.975
114271.263
114271.578
114011.211
114011.223
114011.247
114011.284
114011.333
114011.395
114011.469
114011.556
114011.655
114011.766
114011.89
114012.025
114012.174
114012.334
114012.507
114012.692
114012.89
114013.099
114013.321
114013.556
114013.803
114014.063
114014.335
114014.621
114014.935
113754.342
113754.354
113754.378
113754.415
113754.464
113754.525
113754.599
113754.685
113754.784
113754.894
113755.017
113755.152
113755.3
113755.459
113755.631
113755.816
113756.012
113756.221
113756.442
113756.675
113756.921
113757.179
113757.45
113757.735
113758.047
113497.231
113497.242
113497.266
113497.303
113497.352
113497.413
113497.486
113497.572
113497.67
113497.78
113497.902
113498.036
113498.183
113498.342
113498.513
113498.696
113498.891
113499.098
113499.318
113499.55
113499.795
113500.051
113500.321
113500.604
113500.915
113239.878
113239.89
113239.914
113239.95
113239.998
113240.059
113240.132
113240.217
113240.314
113240.424
113240.545
113240.679
113240.824
113240.982
113241.152
113241.334
113241.528
113241.734
113241.953
113242.183
113242.426
113242.681
113242.949
113243.231
113243.539
112982.286
112982.298
112982.321
112982.357
112982.405
112982.466
112982.538
112982.623
112982.719
112982.828
112982.949
112983.081
112983.226
112983.383
112983.551
112983.732
112983.925
112984.13
112984.346
112984.576
112984.817
112985.07
112985.336
112985.616
112985.923
112724.456
112724.467
112724.491
112724.527
112724.575
112724.634
112724.706
112724.79
112724.886
112724.994
112725.114
112725.245
112725.389
112725.545
112725.712
112725.892
112726.083
112726.286
112726.501
112726.729
112726.968
112727.22
112727.484
112727.761
112728.066
112466.39
112466.401
112466.425
112466.46
112466.507
112466.567
112466.638
112466.721
112466.817
112466.924
112467.042
112467.173
112467.315
112467.47
112467.636
112467.814
112468.004
112468.205
112468.419
112468.644
112468.882
112469.132
112469.393
112469.669
112469.971
112208.089
112208.101
112208.124
112208.159
112208.206
112208.265
112208.335
112208.418
112208.512
112208.619
112208.736
112208.866
112209.007
112209.16
112209.325
112209.501
112209.689
112209.889
112210.101
112210.325
112210.56
112210.808
112211.067
112211.34
112211.64
111949.556
111949.568
111949.59
111949.625
111949.672
111949.73
111949.8
111949.882
111949.976
111950.081
111950.197
111950.326
111950.466
111950.617
111950.781
111950.955
111951.142
111951.34
111951.55
111951.771
111952.005
111952.25
111952.507
111952.778
111953.075
111690.793
111690.804
111690.827
111690.861
111690.908
111690.965
111691.035
111691.116
111691.208
111691.313
111691.428
111691.555
111691.694
111691.844
111692.005
111692.179
111692.363
111692.559
111692.767
111692.987
111693.218
111693.461
111693.715
111693.983
111694.278
111431.802
111431.813
111431.836
111431.87
111431.915
111431.972
111432.041
111432.121
111432.213
111432.316
111432.43
111432.556
111432.693
111432.842
111433.002
111433.173
111433.356
111433.55
111433.756
111433.973
111434.201
111434.442
111434.694
111434.959
111435.251
111172.586
111172.596
111172.619
111172.652
111172.697
111172.754
111172.822
111172.901
111172.992
111173.094
111173.207
111173.331
111173.467
111173.614
111173.772
111173.941
111174.122
111174.314
111174.517
111174.732
111174.958
111175.196
111175.445
111175.707
111175.996
110913.146
110913.157
110913.179
110913.212
110913.256
110913.312
110913.379
110913.458
110913.547
110913.648
110913.76
110913.883
110914.017
110914.162
110914.318
110914.486
110914.664
110914.854
110915.055
110915.267
110915.49
110915.725
110915.972
110916.231
110916.517
110653.486
110653.496
110653.518
110653.551
110653.595
110653.65
110653.716
110653.794
110653.882
110653.982
110654.092
110654.213
110654.346
110654.489
110654.643
110654.809
110654.985
110655.172
110655.371
110655.58
110655.801
110656.033
110656.276
110656.532
110656.815
110393.608
110393.618
110393.64
110393.672
110393.716
110393.77
110393.835
110393.912
110393.999
110394.097
110394.206
110394.326
110394.456
110394.598
110394.75
110394.913
110395.087
110395.272
110395.468
110395.675
110395.892
110396.121
110396.361
110396.614
110396.893
110133.515
110133.525
110133.547
110133.579
110133.621
110133.675
110133.74
110133.815
110133.901
110133.998
110134.105
110134.223
110134.352
110134.491
110134.641
110134.802
110134.974
110135.156
110135.349
110135.553
110135.768
110135.993
110136.23
110136.479
110136.755
109873.211
109873.221
109873.242
109873.273
109873.315
109873.368
109873.432
109873.506
109873.591
109873.686
109873.792
109873.908
109874.035
109874.172
109874.32
109874.479
109874.648
109874.827
109875.017
109875.218
109875.43
109875.652
109875.885
109876.131
109876.403
109612.698
109612.708
109612.728
109612.759
109612.801
109612.853
109612.915
109612.988
109613.072
109613.166
109613.27
109613.384
109613.509
109613.644
109613.79
109613.946
109614.112
109614.289
109614.476
109614.674
109614.882
109615.101
109615.33
109615.572
109615.84
109351.979
109351.989
109352.009
109352.04
109352.081
109352.132
109352.193
109352.265
109352.347
109352.439
109352.542
109352.654
109352.777
109352.91
109353.053
109353.207
109353.37
109353.544
109353.728
109353.923
109354.127
109354.343
109354.568
109354.806
109355.07
109091.059
109091.069
109091.088
109091.118
109091.158
109091.209
109091.269
109091.34
109091.42
109091.511
109091.612
109091.722
109091.843
109091.974
109092.114
109092.265
109092.426
109092.596
109092.777
109092.968
109093.169
109093.381
109093.603
109093.836
109094.096
108829.94
108829.95
108829.969
108829.998
108830.038
108830.087
108830.146
108830.216
108830.295
108830.384
108830.483
108830.591
108830.71
108830.838
108830.976
108831.124
108831.282
108831.449
108831.627
108831.814
108832.012
108832.219
108832.437
108832.666
108832.921
108568.627
108568.636
108568.655
108568.684
108568.722
108568.771
108568.829
108568.897
108568.975
108569.062
108569.159
108569.265
108569.381
108569.507
108569.642
108569.787
108569.942
108570.106
108570.28
108570.464
108570.658
108570.861
108571.075
108571.3
108571.55
108307.122
108307.131
108307.15
108307.178
108307.216
108307.263
108307.32
108307.387
108307.463
108307.548
108307.643
108307.747
108307.861
108307.984
108308.117
108308.259
108308.411
108308.571
108308.742
108308.922
108309.112
108309.311
108309.52
108309.741
108309.986
108045.431
108045.44
108045.458
108045.485
108045.522
108045.569
108045.625
108045.69
108045.764
108045.848
108045.94
108046.042
108046.154
108046.274
108046.404
108046.543
108046.691
108046.849
108047.015
108047.191
108047.377
108047.572
108047.777
108047.992
108048.233
107783.557
107783.565
107783.583
107783.61
107783.646
107783.691
107783.746
107783.809
107783.882
107783.964
107784.054
107784.154
107784.263
107784.38
107784.507
107784.643
107784.788
107784.942
107785.105
107785.277
107785.458
107785.649
107785.849
107786.059
107786.295
107521.503
107521.512
107521.529
107521.555
107521.591
107521.635
107521.688
107521.75
107521.821
107521.901
107521.989
107522.086
107522.192
107522.307
107522.431
107522.564
107522.705
107522.855
107523.014
107523.182
107523.359
107523.545
107523.74
107523.946
107524.177
107259.276
107259.284
107259.301
107259.326
107259.361
107259.404
107259.455
107259.516
107259.585
107259.663
107259.749
107259.844
107259.947
107260.059
107260.18
107260.309
107260.447
107260.593
107260.748
107260.912
107261.084
107261.265
107261.455
107261.656
107261.881
106996.878
106996.886
106996.902
106996.927
106996.961
106997.003
106997.053
106997.112
106997.179
106997.255
106997.339
106997.431
106997.531
106997.64
106997.758
106997.884
106998.017
106998.16
106998.311
106998.47
106998.638
106998.814
106998.999
106999.194
106999.414
106734.315
106734.323
106734.338
106734.363
106734.395
106734.436
106734.485
106734.542
106734.607
106734.681
106734.762
106734.852
106734.95
106735.056
106735.17
106735.292
106735.422
106735.56
106735.707
106735.861
106736.025
106736.196
106736.376
106736.566
106736.78
106471.591
106471.598
106471.614
106471.637
106471.669
106471.708
106471.756
106471.811
106471.875
106471.946
106472.025
106472.112
106472.207
106472.31
106472.42
106472.539
106472.665
106472.799
106472.941
106473.091
106473.249
106473.416
106473.59
106473.774
106473.983
106208.711
106208.718
106208.733
106208.756
106208.787
106208.825
106208.871
106208.925
106208.986
106209.055
106209.132
106209.216
106209.308
106209.407
106209.514
106209.629
106209.751
106209.881
106210.018
106210.164
106210.317
106210.478
106210.647
106210.825
106211.028
105945.681
105945.688
105945.702
105945.724
105945.753
105945.79
105945.835
105945.887
105945.946
105946.013
105946.087
105946.168
105946.257
105946.353
105946.456
105946.567
105946.685
105946.811
105946.944
105947.084
105947.232
105947.388
105947.551
105947.723
105947.92
105682.504
105682.511
105682.525
105682.546
105682.574
105682.61
105682.653
105682.703
105682.76
105682.824
105682.896
105682.974
105683.06
105683.152
105683.252
105683.359
105683.473
105683.594
105683.722
105683.857
105684
105684.15
105684.308
105684.474
105684.664
105419.187
105419.193
105419.207
105419.227
105419.254
105419.289
105419.33
105419.378
105419.433
105419.495
105419.564
105419.639
105419.721
105419.811
105419.907
105420.009
105420.119
105420.235
105420.359
105420.489
105420.626
105420.771
105420.922
105421.082
105421.266
105155.735
105155.741
105155.753
105155.773
105155.799
105155.832
105155.872
105155.918
105155.971
105156.03
105156.096
105156.168
105156.247
105156.333
105156.425
105156.524
105156.629
105156.741
105156.859
105156.984
105157.116
105157.254
105157.4
105157.553
105157.73
104892.152
104892.158
104892.17
104892.189
104892.214
104892.245
104892.283
104892.328
104892.378
104892.435
104892.498
104892.567
104892.643
104892.725
104892.813
104892.908
104893.008
104893.115
104893.228
104893.348
104893.474
104893.607
104893.746
104893.893
104894.063
104628.446
104628.451
104628.463
104628.481
104628.504
104628.535
104628.571
104628.613
104628.661
104628.716
104628.776
104628.842
104628.914
104628.992
104629.076
104629.166
104629.262
104629.364
104629.472
104629.586
104629.707
104629.833
104629.966
104630.107
104630.27
104364.621
104364.626
104364.637
104364.654
104364.676
104364.705
104364.739
104364.78
104364.826
104364.877
104364.934
104364.997
104365.066
104365.14
104365.22
104365.306
104365.397
104365.494
104365.597
104365.705
104365.82
104365.94
104366.066
104366.2
104366.357
104100.683
104100.688
104100.698
104100.714
104100.735
104100.763
104100.795
104100.833
104100.877
104100.926
104100.98
104101.039
104101.104
104101.175
104101.251
104101.332
104101.418
104101.51
104101.607
104101.71
104101.819
104101.932
104102.052
104102.179
104102.328
103836.638
103836.643
103836.652
103836.667
103836.688
103836.713
103836.744
103836.78
103836.821
103836.867
103836.918
103836.975
103837.036
103837.102
103837.174
103837.25
103837.332
103837.418
103837.51
103837.607
103837.709
103837.817
103837.93
103838.05
103838.192
103572.493
103572.497
103572.506
103572.52
103572.539
103572.563
103572.592
103572.626
103572.664
103572.708
103572.756
103572.808
103572.866
103572.928
103572.995
103573.067
103573.144
103573.225
103573.311
103573.402
103573.498
103573.599
103573.705
103573.818
103573.952
103308.253
103308.257
103308.265
103308.278
103308.296
103308.318
103308.345
103308.377
103308.413
103308.453
103308.498
103308.547
103308.601
103308.659
103308.722
103308.789
103308.86
103308.936
103309.016
103309.101
103309.191
103309.285
103309.384
103309.49
103309.617
103043.925
103043.928
103043.936
103043.948
103043.965
103043.985
103044.01
103044.04
103044.073
103044.111
103044.152
103044.198
103044.247
103044.301
103044.359
103044.422
103044.488
103044.558
103044.633
103044.711
103044.795
103044.882
103044.974
103045.072
103045.191
102779.515
102779.518
102779.525
102779.536
102779.552
102779.571
102779.594
102779.62
102779.651
102779.686
102779.724
102779.766
102779.812
102779.861
102779.914
102779.972
102780.033
102780.097
102780.166
102780.238
102780.315
102780.395
102780.48
102780.57
102780.682
102515.03
102515.033
102515.039
102515.049
102515.063
102515.08
102515.101
102515.126
102515.154
102515.185
102515.22
102515.258
102515.3
102515.345
102515.394
102515.446
102515.501
102515.56
102515.622
102515.688
102515.758
102515.832
102515.909
102515.992
102516.095
102250.476
102250.479
102250.485
102250.494
102250.506
102250.522
102250.54
102250.562
102250.588
102250.616
102250.647
102250.681
102250.719
102250.759
102250.803
102250.85
102250.9
102250.953
102251.009
102251.069
102251.132
102251.198
102251.268
102251.342
102251.438
101985.861
101985.863
101985.869
101985.877
101985.887
101985.901
101985.918
101985.937
101985.959
101985.984
101986.012
101986.042
101986.075
101986.111
101986.15
101986.191
101986.236
101986.283
101986.332
101986.385
101986.441
101986.5
101986.562
101986.629
101986.716
101721.192
101721.194
101721.198
101721.205
101721.214
101721.226
101721.24
101721.257
101721.276
101721.298
101721.322
101721.348
101721.376
101721.407
101721.441
101721.477
101721.515
101721.556
101721.599
101721.645
101721.694
101721.745
101721.799
101721.858
101721.937
101456.475
101456.476
101456.48
101456.486
101456.493
101456.503
101456.515
101456.529
101456.545
101456.563
101456.583
101456.605
101456.629
101456.655
101456.683
101456.713
101456.745
101456.779
101456.816
101456.855
101456.896
101456.94
101456.986
101457.037
101457.107
101191.718
101191.719
101191.722
101191.726
101191.733
101191.74
101191.75
101191.761
101191.774
101191.788
101191.803
101191.821
101191.84
101191.86
101191.883
101191.907
101191.932
101191.96
101191.989
101192.021
101192.054
101192.09
101192.128
101192.171
101192.232
100926.928
100926.929
100926.931
100926.935
100926.939
100926.945
100926.952
100926.96
100926.969
100926.979
100926.991
100927.003
100927.017
100927.032
100927.048
100927.066
100927.084
100927.105
100927.126
100927.15
100927.176
100927.203
100927.233
100927.267
100927.319
100662.113
100662.113
100662.115
100662.117
100662.12
100662.124
100662.129
100662.134
100662.14
100662.146
100662.153
100662.161
100662.17
100662.179
100662.189
100662.199
100662.21
100662.223
100662.236
100662.251
100662.267
100662.285
100662.306
100662.331
100662.375
100397.278
100397.278
100397.279
100397.28
100397.282
100397.284
100397.287
100397.29
100397.293
100397.296
100397.3
100397.303
100397.308
100397.312
100397.316
100397.32
100397.324
100397.328
100397.333
100397.337
100397.342
100397.347
100397.354
100397.365
100397.397
100132.427
100132.427
100132.427
100132.427
100132.428
100132.428
100132.429
100132.43
100132.431
100132.432
100132.432
100132.433
100132.434
100132.435
100132.437
100132.438
100132.439
100132.44
100132.441
100132.443
100132.444
100132.446
100132.449
100132.454
100132.47
)
;

boundaryField
{
    inlet
    {
        type            calculated;
        value           nonuniform List<scalar>
25
(
119473.51
119473.524
119473.552
119473.593
119473.644
119473.703
119473.77
119473.84
119473.913
119473.987
119474.081
119474.209
119474.37
119474.564
119474.791
119475.053
119475.337
119475.621
119475.909
119476.202
119476.502
119476.813
119477.136
119477.474
119477.805
)
;
    }
    outlet
    {
        type            calculated;
        value           uniform 100000;
    }
    wall1
    {
        type            calculated;
        value           nonuniform List<scalar>
75
(
119348.073
119096.454
118844.579
118592.451
118340.069
118087.434
117834.546
117581.406
117328.016
117074.374
116820.482
116566.34
116311.947
116057.304
115802.411
115547.269
115291.877
115036.238
114780.35
114524.216
114267.836
114011.211
113754.342
113497.231
113239.878
112982.286
112724.456
112466.39
112208.089
111949.556
111690.793
111431.802
111172.586
110913.146
110653.486
110393.608
110133.515
109873.211
109612.698
109351.979
109091.059
108829.94
108568.627
108307.122
108045.431
107783.557
107521.503
107259.276
106996.878
106734.315
106471.591
106208.711
105945.681
105682.504
105419.187
105155.735
104892.152
104628.446
104364.621
104100.683
103836.638
103572.493
103308.253
103043.925
102779.515
102515.03
102250.476
101985.861
101721.192
101456.475
101191.718
100926.928
100662.113
100397.278
100132.427
)
;
    }
    wall2
    {
        type            calculated;
        value           nonuniform List<scalar>
75
(
119352.376
119100.503
118848.509
118596.324
118343.913
118091.264
117838.371
117585.229
117331.839
117078.198
116824.305
116570.161
116315.766
116061.119
115806.221
115551.071
115295.671
115040.021
114784.122
114527.973
114271.578
114014.935
113758.047
113500.915
113243.539
112985.923
112728.066
112469.971
112211.64
111953.075
111694.278
111435.251
111175.996
110916.517
110656.815
110396.893
110136.755
109876.403
109615.84
109355.07
109094.096
108832.921
108571.55
108309.986
108048.233
107786.295
107524.177
107261.881
106999.414
106736.78
106473.983
106211.028
105947.92
105684.664
105421.266
105157.73
104894.063
104630.27
104366.357
104102.328
103838.192
103573.952
103309.617
103045.191
102780.682
102516.095
102251.438
101986.716
101721.937
101457.107
101192.232
100927.319
100662.375
100397.397
100132.47
)
;
    }
    defaultFaces
    {
        type            empty;
    }
}


// ************************************************************************* //
