/*--------------------------------*- C++ -*----------------------------------*\
| =========                 |                                                 |
| \\      /  F ield         | OpenFOAM: The Open Source CFD Toolbox           |
|  \\    /   O peration     | Version:  dev                                   |
|   \\  /    A nd           | Web:      www.OpenFOAM.org                      |
|    \\/     M anipulation  |                                                 |
\*---------------------------------------------------------------------------*/
FoamFile
{
    version     2.0;
    format      ascii;
    class       volScalarField;
    location    "5";
    object      p_rgh;
}
// * * * * * * * * * * * * * * * * * * * * * * * * * * * * * * * * * * * * * //

dimensions      [1 -1 -2 0 0 0 0];

internalField   nonuniform List<scalar>
1875
(
119473.51
119473.524
119473.552
119473.593
119473.644
119473.703
119473.77
119473.84
119473.913
119473.987
119474.081
119474.209
119474.37
119474.564
119474.791
119475.053
119475.337
119475.621
119475.909
119476.202
119476.502
119476.813
119477.136
119477.474
119477.805
119472.766
119472.778
119472.803
119472.84
119472.89
119472.952
119473.025
119473.111
119473.21
119473.322
119473.45
119473.594
119473.756
119473.936
119474.134
119474.348
119474.577
119474.819
119475.072
119475.337
119475.611
119475.896
119476.189
119476.492
119476.791
119471.765
119471.777
119471.802
119471.841
119471.892
119471.956
119472.033
119472.123
119472.226
119472.343
119472.474
119472.618
119472.777
119472.95
119473.136
119473.337
119473.55
119473.776
119474.014
119474.264
119474.526
119474.798
119475.081
119475.376
119475.656
119470.511
119470.524
119470.549
119470.588
119470.639
119470.704
119470.781
119470.872
119470.975
119471.092
119471.222
119471.364
119471.52
119471.689
119471.871
119472.066
119472.273
119472.492
119472.724
119472.968
119473.225
119473.493
119473.773
119474.066
119474.329
119469.004
119469.016
119469.042
119469.08
119469.131
119469.196
119469.273
119469.363
119469.466
119469.582
119469.71
119469.852
119470.006
119470.173
119470.352
119470.544
119470.749
119470.966
119471.195
119471.437
119471.691
119471.958
119472.236
119472.529
119472.777
119467.243
119467.255
119467.281
119467.319
119467.37
119467.434
119467.511
119467.6
119467.703
119467.818
119467.946
119468.086
119468.239
119468.405
119468.583
119468.774
119468.978
119469.194
119469.422
119469.663
119469.916
119470.183
119470.461
119470.754
119470.986
119465.23
119465.242
119465.267
119465.305
119465.356
119465.42
119465.496
119465.586
119465.688
119465.802
119465.93
119466.07
119466.222
119466.388
119466.566
119466.756
119466.959
119467.174
119467.402
119467.643
119467.897
119468.163
119468.441
119468.734
119468.951
119462.964
119462.977
119463.002
119463.04
119463.091
119463.154
119463.231
119463.32
119463.422
119463.536
119463.663
119463.803
119463.955
119464.12
119464.298
119464.488
119464.691
119464.906
119465.135
119465.375
119465.629
119465.895
119466.174
119466.467
119466.668
119460.448
119460.46
119460.486
119460.523
119460.574
119460.638
119460.714
119460.803
119460.905
119461.019
119461.146
119461.286
119461.438
119461.603
119461.781
119461.971
119462.174
119462.389
119462.617
119462.858
119463.111
119463.378
119463.657
119463.95
119464.135
119457.681
119457.693
119457.718
119457.756
119457.807
119457.87
119457.947
119458.036
119458.138
119458.252
119458.379
119458.518
119458.671
119458.836
119459.013
119459.203
119459.406
119459.621
119459.85
119460.09
119460.344
119460.61
119460.89
119461.183
119461.352
119454.663
119454.676
119454.701
119454.739
119454.789
119454.853
119454.929
119455.018
119455.12
119455.234
119455.361
119455.5
119455.653
119455.817
119455.995
119456.185
119456.388
119456.603
119456.831
119457.072
119457.326
119457.592
119457.872
119458.165
119458.318
119451.395
119451.407
119451.432
119451.47
119451.521
119451.584
119451.661
119451.749
119451.851
119451.965
119452.092
119452.232
119452.384
119452.549
119452.726
119452.916
119453.119
119453.334
119453.562
119453.803
119454.056
119454.323
119454.602
119454.896
119455.032
119447.877
119447.889
119447.914
119447.952
119448.002
119448.066
119448.142
119448.231
119448.332
119448.447
119448.573
119448.713
119448.865
119449.029
119449.207
119449.397
119449.599
119449.814
119450.042
119450.283
119450.536
119450.802
119451.081
119451.375
119451.495
119444.108
119444.12
119444.145
119444.183
119444.234
119444.297
119444.373
119444.462
119444.563
119444.677
119444.804
119444.943
119445.095
119445.259
119445.436
119445.626
119445.828
119446.043
119446.271
119446.511
119446.765
119447.03
119447.309
119447.603
119447.705
119440.09
119440.102
119440.127
119440.164
119440.215
119440.278
119440.354
119440.443
119440.544
119440.658
119440.784
119440.923
119441.075
119441.239
119441.416
119441.605
119441.807
119442.022
119442.249
119442.489
119442.742
119443.008
119443.286
119443.579
119443.665
119435.822
119435.834
119435.859
119435.896
119435.947
119436.01
119436.086
119436.174
119436.275
119436.389
119436.515
119436.654
119436.805
119436.969
119437.146
119437.335
119437.536
119437.75
119437.977
119438.217
119438.469
119438.734
119439.012
119439.304
119439.373
119431.305
119431.317
119431.342
119431.379
119431.43
119431.492
119431.568
119431.656
119431.757
119431.871
119431.997
119432.135
119432.286
119432.449
119432.626
119432.814
119433.015
119433.229
119433.455
119433.694
119433.946
119434.211
119434.488
119434.78
119434.831
119426.54
119426.552
119426.576
119426.614
119426.664
119426.727
119426.802
119426.89
119426.991
119427.104
119427.229
119427.367
119427.518
119427.681
119427.857
119428.045
119428.245
119428.458
119428.684
119428.922
119429.174
119429.437
119429.714
119430.005
119430.038
119421.527
119421.539
119421.563
119421.601
119421.651
119421.713
119421.788
119421.876
119421.976
119422.089
119422.214
119422.352
119422.502
119422.664
119422.839
119423.027
119423.227
119423.439
119423.664
119423.902
119424.152
119424.415
119424.691
119424.98
119424.996
119416.267
119416.279
119416.303
119416.341
119416.39
119416.453
119416.527
119416.615
119416.715
119416.827
119416.952
119417.089
119417.238
119417.4
119417.575
119417.762
119417.961
119418.172
119418.396
119418.633
119418.882
119419.144
119419.419
119419.708
119419.705
119410.761
119410.773
119410.797
119410.834
119410.884
119410.946
119411.021
119411.108
119411.207
119411.319
119411.443
119411.58
119411.728
119411.89
119412.063
119412.249
119412.448
119412.659
119412.882
119413.117
119413.366
119413.627
119413.9
119414.188
119414.167
119405.01
119405.022
119405.047
119405.083
119405.133
119405.194
119405.269
119405.355
119405.454
119405.566
119405.689
119405.825
119405.973
119406.134
119406.307
119406.492
119406.689
119406.899
119407.121
119407.356
119407.603
119407.862
119408.135
119408.421
119408.381
119399.016
119399.028
119399.052
119399.089
119399.138
119399.199
119399.273
119399.359
119399.458
119399.568
119399.691
119399.826
119399.974
119400.133
119400.305
119400.49
119400.686
119400.895
119401.116
119401.349
119401.595
119401.853
119402.124
119402.409
119402.35
119392.779
119392.791
119392.815
119392.851
119392.9
119392.961
119393.034
119393.12
119393.218
119393.328
119393.45
119393.585
119393.731
119393.89
119394.061
119394.244
119394.439
119394.647
119394.867
119395.099
119395.343
119395.6
119395.869
119396.152
119396.075
119386.301
119386.313
119386.336
119386.373
119386.421
119386.482
119386.555
119386.64
119386.737
119386.847
119386.968
119387.102
119387.247
119387.405
119387.575
119387.757
119387.951
119388.157
119388.375
119388.606
119388.849
119389.104
119389.372
119389.653
119389.557
119379.583
119379.595
119379.619
119379.655
119379.703
119379.763
119379.835
119379.92
119380.017
119380.125
119380.246
119380.379
119380.523
119380.68
119380.849
119381.029
119381.222
119381.427
119381.644
119381.873
119382.114
119382.367
119382.633
119382.913
119382.797
119372.628
119372.639
119372.663
119372.698
119372.746
119372.806
119372.878
119372.962
119373.058
119373.166
119373.285
119373.417
119373.561
119373.716
119373.884
119374.063
119374.254
119374.458
119374.673
119374.9
119375.14
119375.391
119375.655
119375.933
119375.797
119365.436
119365.447
119365.471
119365.506
119365.553
119365.613
119365.684
119365.767
119365.863
119365.97
119366.088
119366.219
119366.361
119366.516
119366.682
119366.86
119367.05
119367.251
119367.465
119367.69
119367.928
119368.178
119368.439
119368.715
119368.559
119358.01
119358.021
119358.044
119358.079
119358.126
119358.185
119358.256
119358.338
119358.433
119358.539
119358.657
119358.786
119358.927
119359.08
119359.245
119359.422
119359.61
119359.81
119360.021
119360.245
119360.481
119360.728
119360.988
119361.26
119361.085
119350.351
119350.362
119350.385
119350.42
119350.467
119350.525
119350.595
119350.677
119350.77
119350.876
119350.992
119351.121
119351.26
119351.412
119351.575
119351.75
119351.937
119352.135
119352.344
119352.566
119352.799
119353.045
119353.302
119353.572
119353.376
119342.462
119342.474
119342.496
119342.531
119342.577
119342.635
119342.704
119342.785
119342.878
119342.982
119343.097
119343.224
119343.363
119343.513
119343.675
119343.848
119344.032
119344.229
119344.436
119344.656
119344.887
119345.13
119345.384
119345.652
119345.436
119334.346
119334.357
119334.379
119334.413
119334.459
119334.516
119334.585
119334.665
119334.757
119334.86
119334.974
119335.1
119335.237
119335.385
119335.545
119335.717
119335.899
119336.094
119336.299
119336.516
119336.745
119336.985
119337.237
119337.502
119337.265
119326.004
119326.014
119326.037
119326.07
119326.115
119326.172
119326.24
119326.319
119326.41
119326.512
119326.625
119326.749
119326.885
119327.032
119327.19
119327.359
119327.54
119327.732
119327.935
119328.15
119328.376
119328.614
119328.863
119329.125
119328.867
119317.438
119317.449
119317.471
119317.504
119317.549
119317.605
119317.672
119317.75
119317.84
119317.94
119318.052
119318.175
119318.309
119318.454
119318.611
119318.778
119318.957
119319.146
119319.347
119319.559
119319.783
119320.018
119320.264
119320.523
119320.243
119308.653
119308.663
119308.685
119308.718
119308.762
119308.817
119308.883
119308.96
119309.049
119309.148
119309.259
119309.38
119309.512
119309.656
119309.81
119309.976
119310.152
119310.339
119310.537
119310.747
119310.968
119311.2
119311.443
119311.699
119311.397
119299.649
119299.659
119299.681
119299.713
119299.757
119299.811
119299.877
119299.953
119300.04
119300.138
119300.247
119300.367
119300.498
119300.639
119300.791
119300.955
119301.129
119301.313
119301.509
119301.716
119301.934
119302.162
119302.403
119302.655
119302.332
119290.431
119290.441
119290.462
119290.494
119290.537
119290.591
119290.655
119290.73
119290.817
119290.913
119291.021
119291.139
119291.267
119291.407
119291.557
119291.718
119291.89
119292.072
119292.265
119292.469
119292.683
119292.909
119293.146
119293.395
119293.049
119281.001
119281.011
119281.032
119281.063
119281.105
119281.158
119281.222
119281.296
119281.381
119281.476
119281.582
119281.698
119281.825
119281.962
119282.11
119282.269
119282.438
119282.617
119282.807
119283.008
119283.22
119283.442
119283.675
119283.921
119283.553
119271.362
119271.372
119271.393
119271.424
119271.465
119271.517
119271.58
119271.653
119271.736
119271.83
119271.934
119272.049
119272.173
119272.309
119272.454
119272.61
119272.777
119272.953
119273.14
119273.338
119273.546
119273.765
119273.995
119274.236
119273.846
119261.518
119261.528
119261.548
119261.579
119261.619
119261.671
119261.732
119261.804
119261.886
119261.978
119262.081
119262.193
119262.316
119262.449
119262.592
119262.746
119262.909
119263.083
119263.267
119263.461
119263.666
119263.881
119264.107
119264.345
119263.932
119251.472
119251.482
119251.502
119251.532
119251.572
119251.622
119251.682
119251.753
119251.834
119251.924
119252.025
119252.135
119252.256
119252.387
119252.527
119252.678
119252.839
119253.01
119253.19
119253.381
119253.583
119253.794
119254.016
119254.249
119253.813
119241.228
119241.237
119241.257
119241.286
119241.325
119241.375
119241.434
119241.503
119241.583
119241.672
119241.77
119241.879
119241.997
119242.125
119242.264
119242.412
119242.569
119242.737
119242.914
119243.102
119243.299
119243.507
119243.725
119243.954
119243.495
119230.789
119230.798
119230.817
119230.846
119230.884
119230.933
119230.991
119231.059
119231.137
119231.224
119231.321
119231.427
119231.543
119231.669
119231.804
119231.949
119232.104
119232.268
119232.442
119232.626
119232.82
119233.023
119233.237
119233.461
119232.979
119220.159
119220.168
119220.186
119220.215
119220.252
119220.3
119220.357
119220.423
119220.499
119220.585
119220.68
119220.784
119220.898
119221.021
119221.153
119221.296
119221.447
119221.608
119221.778
119221.958
119222.148
119222.347
119222.556
119222.776
119222.27
119209.342
119209.351
119209.369
119209.396
119209.433
119209.48
119209.535
119209.6
119209.675
119209.759
119209.851
119209.953
119210.064
119210.185
119210.315
119210.454
119210.602
119210.759
119210.926
119211.102
119211.288
119211.483
119211.687
119211.903
119211.372
119198.342
119198.35
119198.368
119198.395
119198.431
119198.476
119198.531
119198.594
119198.667
119198.749
119198.84
119198.939
119199.048
119199.166
119199.292
119199.428
119199.573
119199.727
119199.89
119200.062
119200.243
119200.434
119200.634
119200.844
119200.289
119187.163
119187.171
119187.189
119187.215
119187.25
119187.294
119187.347
119187.41
119187.481
119187.56
119187.649
119187.746
119187.852
119187.967
119188.091
119188.223
119188.365
119188.515
119188.674
119188.842
119189.019
119189.205
119189.4
119189.605
119189.026
119175.81
119175.818
119175.835
119175.86
119175.895
119175.938
119175.989
119176.05
119176.119
119176.197
119176.283
119176.378
119176.481
119176.593
119176.714
119176.843
119176.981
119177.127
119177.282
119177.446
119177.618
119177.799
119177.989
119178.19
119177.586
119164.286
119164.294
119164.311
119164.336
119164.369
119164.411
119164.461
119164.52
119164.588
119164.663
119164.747
119164.839
119164.94
119165.049
119165.166
119165.292
119165.426
119165.568
119165.719
119165.878
119166.046
119166.222
119166.408
119166.602
119165.973
119152.598
119152.605
119152.621
119152.645
119152.678
119152.719
119152.768
119152.825
119152.89
119152.964
119153.045
119153.135
119153.233
119153.338
119153.453
119153.575
119153.705
119153.843
119153.99
119154.144
119154.307
119154.479
119154.659
119154.848
119154.193
119140.748
119140.756
119140.771
119140.795
119140.826
119140.866
119140.913
119140.969
119141.032
119141.103
119141.182
119141.269
119141.364
119141.467
119141.577
119141.696
119141.822
119141.956
119142.098
119142.248
119142.407
119142.573
119142.747
119142.931
119142.251
119128.743
119128.75
119128.765
119128.788
119128.818
119128.856
119128.902
119128.956
119129.018
119129.087
119129.163
119129.247
119129.339
119129.439
119129.546
119129.66
119129.783
119129.912
119130.05
119130.195
119130.348
119130.509
119130.678
119130.856
119130.15
119116.587
119116.594
119116.608
119116.63
119116.659
119116.696
119116.741
119116.793
119116.852
119116.919
119116.993
119117.074
119117.163
119117.259
119117.362
119117.473
119117.591
119117.717
119117.85
119117.99
119118.138
119118.294
119118.457
119118.629
119117.897
119104.285
119104.291
119104.305
119104.326
119104.355
119104.39
119104.433
119104.483
119104.541
119104.605
119104.676
119104.755
119104.84
119104.933
119105.033
119105.139
119105.253
119105.374
119105.502
119105.638
119105.781
119105.931
119106.088
119106.254
119105.496
119091.842
119091.848
119091.861
119091.882
119091.909
119091.943
119091.985
119092.033
119092.088
119092.15
119092.219
119092.294
119092.376
119092.465
119092.561
119092.664
119092.774
119092.89
119093.013
119093.144
119093.281
119093.425
119093.577
119093.737
119092.952
119079.264
119079.27
119079.283
119079.302
119079.328
119079.361
119079.401
119079.447
119079.5
119079.559
119079.625
119079.698
119079.777
119079.862
119079.954
119080.053
119080.158
119080.27
119080.388
119080.513
119080.645
119080.783
119080.929
119081.082
119080.271
119066.556
119066.562
119066.574
119066.592
119066.618
119066.649
119066.687
119066.731
119066.782
119066.839
119066.902
119066.971
119067.047
119067.129
119067.217
119067.311
119067.412
119067.519
119067.632
119067.751
119067.878
119068.01
119068.149
119068.296
119067.458
119053.724
119053.729
119053.741
119053.759
119053.782
119053.813
119053.849
119053.891
119053.939
119053.994
119054.054
119054.12
119054.192
119054.27
119054.354
119054.444
119054.54
119054.642
119054.75
119054.864
119054.985
119055.111
119055.244
119055.384
119054.518
119040.773
119040.778
119040.789
119040.806
119040.829
119040.857
119040.892
119040.932
119040.978
119041.03
119041.087
119041.15
119041.218
119041.292
119041.372
119041.458
119041.549
119041.646
119041.749
119041.858
119041.972
119042.092
119042.219
119042.352
119041.459
119027.709
119027.714
119027.725
119027.741
119027.762
119027.789
119027.822
119027.86
119027.904
119027.953
119028.007
119028.066
119028.131
119028.202
119028.277
119028.359
119028.445
119028.537
119028.634
119028.737
119028.845
119028.959
119029.079
119029.206
119028.284
119014.539
119014.544
119014.554
119014.569
119014.589
119014.614
119014.645
119014.681
119014.722
119014.768
119014.82
119014.876
119014.937
119015.003
119015.075
119015.151
119015.233
119015.319
119015.411
119015.508
119015.611
119015.718
119015.831
119015.95
119015.001
119001.268
119001.272
119001.282
119001.296
119001.315
119001.339
119001.368
119001.401
119001.44
119001.483
119001.531
119001.584
119001.642
119001.704
119001.771
119001.843
119001.919
119002.001
119002.087
119002.178
119002.274
119002.375
119002.481
119002.593
119001.615
118987.903
118987.907
118987.915
118987.928
118987.946
118987.968
118987.995
118988.027
118988.063
118988.103
118988.148
118988.197
118988.251
118988.309
118988.372
118988.439
118988.51
118988.586
118988.666
118988.751
118988.841
118988.935
118989.034
118989.139
118988.133
118974.449
118974.453
118974.461
118974.473
118974.489
118974.51
118974.535
118974.564
118974.598
118974.635
118974.677
118974.722
118974.772
118974.826
118974.884
118974.946
118975.012
118975.082
118975.157
118975.236
118975.319
118975.406
118975.498
118975.596
118974.561
118960.914
118960.917
118960.924
118960.935
118960.95
118960.969
118960.992
118961.019
118961.05
118961.085
118961.123
118961.165
118961.21
118961.26
118961.313
118961.37
118961.431
118961.496
118961.565
118961.637
118961.714
118961.794
118961.879
118961.969
118960.904
118947.303
118947.306
118947.312
118947.323
118947.336
118947.354
118947.375
118947.399
118947.427
118947.458
118947.493
118947.531
118947.573
118947.618
118947.667
118947.719
118947.774
118947.833
118947.896
118947.962
118948.031
118948.105
118948.182
118948.264
118947.171
118933.624
118933.626
118933.632
118933.641
118933.654
118933.669
118933.688
118933.71
118933.735
118933.763
118933.795
118933.829
118933.866
118933.907
118933.951
118933.998
118934.047
118934.1
118934.157
118934.216
118934.279
118934.345
118934.415
118934.489
118933.366
118919.883
118919.885
118919.891
118919.899
118919.909
118919.923
118919.94
118919.959
118919.981
118920.006
118920.034
118920.064
118920.097
118920.133
118920.172
118920.213
118920.258
118920.305
118920.354
118920.407
118920.463
118920.522
118920.584
118920.65
118919.498
118906.088
118906.09
118906.094
118906.101
118906.11
118906.122
118906.137
118906.153
118906.173
118906.194
118906.218
118906.244
118906.273
118906.304
118906.337
118906.373
118906.411
118906.452
118906.495
118906.541
118906.59
118906.642
118906.696
118906.754
118905.571
118892.246
118892.247
118892.251
118892.256
118892.264
118892.274
118892.286
118892.3
118892.316
118892.334
118892.354
118892.376
118892.399
118892.425
118892.454
118892.484
118892.516
118892.55
118892.587
118892.625
118892.667
118892.71
118892.757
118892.807
118891.594
118878.363
118878.364
118878.367
118878.372
118878.378
118878.386
118878.395
118878.406
118878.419
118878.433
118878.449
118878.466
118878.485
118878.505
118878.528
118878.552
118878.577
118878.605
118878.634
118878.666
118878.7
118878.735
118878.774
118878.815
118877.572
118864.448
118864.449
118864.451
118864.454
118864.459
118864.464
118864.471
118864.48
118864.489
118864.499
118864.51
118864.523
118864.537
118864.552
118864.568
118864.585
118864.604
118864.624
118864.646
118864.67
118864.695
118864.723
118864.753
118864.785
118863.511
118850.507
118850.507
118850.509
118850.511
118850.514
118850.518
118850.523
118850.528
118850.534
118850.54
118850.547
118850.555
118850.564
118850.573
118850.583
118850.593
118850.604
118850.617
118850.63
118850.645
118850.661
118850.679
118850.7
118850.724
118849.418
118836.546
118836.546
118836.547
118836.549
118836.55
118836.553
118836.555
118836.558
118836.561
118836.565
118836.568
118836.572
118836.576
118836.58
118836.585
118836.589
118836.593
118836.597
118836.601
118836.605
118836.61
118836.615
118836.622
118836.632
118835.292
118822.569
118822.569
118822.57
118822.57
118822.571
118822.571
118822.572
118822.573
118822.574
118822.574
118822.575
118822.576
118822.577
118822.578
118822.579
118822.58
118822.581
118822.583
118822.584
118822.585
118822.587
118822.589
118822.592
118822.596
118821.22
)
;

boundaryField
{
    inlet
    {
        type            fixedFluxPressure;
        gradient        uniform 0;
        value           nonuniform List<scalar>
25
(
1.10023477e-312
9.56803577e-317
0
9.90566442e-317
0.000166643311
6.91152471e-310
9.89394123e-317
0
0
0
2.71615461e-312
9.89845107e-317
6.95280695e-310
0
0
1.22047495e-05
0
0
7.90505033e-322
2.3715151e-322
9.88275954e-317
3.45845952e-323
0.000140752294
1.31043555e-306
1.02765654e-321
)
;
    }
    outlet
    {
        type            prghPressure;
        p               uniform 100000;
        value           nonuniform List<scalar>
25
(
118815.58
118815.58
118815.58
118815.58
118815.58
118815.58
118815.58
118815.58
118815.58
118815.58
118815.58
118815.58
118815.58
118815.58
118815.58
118815.58
118815.58
118815.58
118815.58
118815.58
118815.58
118815.58
118815.58
118815.579
118814.178
)
;
    }
    wall1
    {
        type            fixedFluxPressure;
        gradient        uniform 0;
        value           nonuniform List<scalar>
75
(
1.10023477e-312
1.10023477e-312
2.12199579e-314
9.76619289e+11
1.32291928e+180
5.29778802e+151
1.23971581e+224
1.44161265e+214
3.50346163e-86
6.8991168e-310
4.7430302e-322
1.74405173e-321
9.92084607e-317
9.92340731e-317
2.12199579e-314
3.9698428e+257
1.92659091e+31
3.9698428e+257
1.04896151e+242
9.76619289e+11
1.63936678e-52
1.05845575e+189
4.11667183e-311
0.00010412751
0
0
0
6.91134029e-310
9.94971136e-317
9.90329291e-317
7.90505033e-322
2.3715151e-322
9.94969951e-317
1.97626258e-323
2.12199579e-314
8.40835471e-315
1.02765654e-321
3.16202013e-322
9.92353379e-317
1.08221785e-312
9.90332848e-317
9.76619045e+11
1.32291887e+180
5.2977871e+151
1.23971565e+224
4.00193173e-322
1.00526865e-316
9.90332058e-317
1.58101007e-322
2.3715151e-322
9.90333639e-317
2.47032823e-323
2.12199579e-314
2.15294903e-312
2.21341409e-321
4.7430302e-322
9.92325711e-317
2.61854792e-322
6.91155249e-310
9.76619289e+11
1.32291928e+180
5.29778802e+151
1.23971581e+224
1.44161265e+214
4.90839929e+252
2.15253881e-312
0
4.00193173e-322
1.00526865e-316
9.94969951e-317
1.58101007e-322
2.3715151e-322
9.92094884e-317
4.94065646e-323
2.12199579e-314
)
;
    }
    wall2
    {
        type            fixedFluxPressure;
        gradient        uniform 0;
        value           nonuniform List<scalar>
75
(
1.10023477e-312
1.10023477e-312
9.90713872e-317
9.90713872e-317
0
9.90660117e-317
9.76767782e-321
5.14322337e-321
1.10023477e-312
9.90582648e-317
0
0
0
0
0
0
0
0
0
0
0
0
0
0
0
0
0
0
0
0
0
0
0
0
0
0
0
0
0
0
0
0
0
0
0
0
0
0
0
0
0
0
0
0
0
0
0
0
0
0
0
0
0
0
0
0
0
0
0
0
0
0
0
0
0
)
;
    }
    defaultFaces
    {
        type            empty;
    }
}


// ************************************************************************* //
