/*--------------------------------*- C++ -*----------------------------------*\
| =========                 |                                                 |
| \\      /  F ield         | OpenFOAM: The Open Source CFD Toolbox           |
|  \\    /   O peration     | Version:  dev                                   |
|   \\  /    A nd           | Web:      www.OpenFOAM.org                      |
|    \\/     M anipulation  |                                                 |
\*---------------------------------------------------------------------------*/
FoamFile
{
    version     2.0;
    format      ascii;
    class       volVectorField;
    location    "5";
    object      U.gas;
}
// * * * * * * * * * * * * * * * * * * * * * * * * * * * * * * * * * * * * * //

dimensions      [0 1 -1 0 0 0 0];

internalField   nonuniform List<vector>
1875
(
(-2.07200459e-05 0.798405379 0)
(-6.16079889e-05 0.901077118 0)
(-0.000100459607 0.958064777 0)
(-0.000136061113 0.999098094 0)
(-0.000167937798 1.03180545 0)
(-0.000195718176 1.05939051 0)
(-0.000219145311 1.0833804 0)
(-0.000238693351 1.10446613 0)
(-0.000254760555 1.12292773 0)
(-0.000289321169 1.13511702 0)
(-0.000356129499 1.13720893 0)
(-0.00043455057 1.13724099 0)
(-0.00051260256 1.13724089 0)
(-0.000591267078 1.13724249 0)
(-0.000671441851 1.13721196 0)
(-0.000740385775 1.13512091 0)
(-0.000776247201 1.12293324 0)
(-0.000793126098 1.10447489 0)
(-0.000814089743 1.08339183 0)
(-0.000839766144 1.05940461 0)
(-0.00087061186 1.03182252 0)
(-0.000906260571 0.999118603 0)
(-0.000951892987 0.958089307 0)
(-0.00545371801 0.901050215 0)
(-0.00496443703 0.796967513 0)
(-1.59927692e-05 0.836006443 0)
(-4.8237448e-05 0.938677538 0)
(-8.06008357e-05 0.995664368 0)
(-0.000112654066 1.03669673 0)
(-0.000144411391 1.06940302 0)
(-0.000176010059 1.09698695 0)
(-0.00020771336 1.12097572 0)
(-0.000239948238 1.14206068 0)
(-0.000273196473 1.16052185 0)
(-0.000308352466 1.1727197 0)
(-0.00034594518 1.17481678 0)
(-0.000385286225 1.17484916 0)
(-0.000425400176 1.17484948 0)
(-0.000465430703 1.17485183 0)
(-0.000504503322 1.17482214 0)
(-0.00054159389 1.17272692 0)
(-0.000575920589 1.16053155 0)
(-0.000607916036 1.14207472 0)
(-0.000638383999 1.12099354 0)
(-0.00066766836 1.0970085 0)
(-0.000695991979 1.06942851 0)
(-0.000723413539 1.03672642 0)
(-0.000755352851 0.995698457 0)
(-0.00431068336 0.938646402 0)
(-0.00392378147 0.833984403 0)
(-1.63388634e-05 0.83129811 0)
(-4.93987531e-05 0.933968903 0)
(-8.2848163e-05 0.990955232 0)
(-0.000116304626 1.03198709 0)
(-0.000149786985 1.06469311 0)
(-0.000183351696 1.09227724 0)
(-0.000217066716 1.116267 0)
(-0.000251001991 1.13735412 0)
(-0.000285143971 1.15581884 0)
(-0.000319560707 1.16802231 0)
(-0.000354409443 1.17012433 0)
(-0.000389617548 1.17015932 0)
(-0.000424935005 1.17016022 0)
(-0.000460104732 1.17016119 0)
(-0.000494864145 1.17012798 0)
(-0.00052895005 1.16802668 0)
(-0.000562267409 1.15582425 0)
(-0.000594944934 1.13736224 0)
(-0.000627019516 1.11627703 0)
(-0.00065844434 1.09228877 0)
(-0.000689258449 1.06470582 0)
(-0.000719602395 1.03200059 0)
(-0.000755254769 0.990968857 0)
(-0.0043387805 0.933949069 0)
(-0.00395086884 0.830360982 0)
(-1.63804805e-05 0.831935634 0)
(-4.95309408e-05 0.934606494 0)
(-8.30853129e-05 0.991592918 0)
(-0.000116653677 1.03262493 0)
(-0.000150233163 1.06533119 0)
(-0.000183840687 1.09291563 0)
(-0.000217486879 1.11690579 0)
(-0.000251175545 1.13799335 0)
(-0.000284812853 1.15645829 0)
(-0.000318340403 1.168662 0)
(-0.00035190634 1.17076436 0)
(-0.000385588285 1.17079935 0)
(-0.000419279579 1.17079999 0)
(-0.000452858757 1.1708004 0)
(-0.000486203318 1.17076635 0)
(-0.000519205843 1.16866387 0)
(-0.000551944017 1.15646032 0)
(-0.000584565165 1.13799719 0)
(-0.000617011063 1.11691058 0)
(-0.000649192207 1.09292097 0)
(-0.00068112214 1.06533676 0)
(-0.000712923937 1.03263041 0)
(-0.000750357403 0.991597789 0)
(-0.00430455612 0.934572685 0)
(-0.00391860902 0.831419472 0)
(-1.63797644e-05 0.832001835 0)
(-4.95271497e-05 0.934672739 0)
(-8.30707105e-05 0.991659194 0)
(-0.000116612268 1.03269126 0)
(-0.00015013915 1.06539757 0)
(-0.000183656575 1.09298208 0)
(-0.000217163048 1.1169723 0)
(-0.000250650984 1.13805994 0)
(-0.000283993159 1.15652457 0)
(-0.000317124716 1.16872828 0)
(-0.000350252781 1.17083097 0)
(-0.000383483675 1.17086587 0)
(-0.000416723232 1.17086628 0)
(-0.00044989238 1.17086636 0)
(-0.000482911458 1.17083185 0)
(-0.000515687547 1.16872848 0)
(-0.000548331155 1.15652439 0)
(-0.000581053649 1.13806102 0)
(-0.000613795419 1.11697382 0)
(-0.000646437928 1.09298366 0)
(-0.000678984778 1.06539895 0)
(-0.000711544071 1.03269216 0)
(-0.000749832263 0.991659181 0)
(-0.00430980364 0.934634392 0)
(-0.00392389766 0.831885787 0)
(-1.6358385e-05 0.832130287 0)
(-4.94619094e-05 0.934801223 0)
(-8.29573326e-05 0.991787679 0)
(-0.000116442614 1.03281974 0)
(-0.000149902786 1.06552605 0)
(-0.000183340974 1.09311054 0)
(-0.000216752989 1.11710072 0)
(-0.000250129316 1.13818831 0)
(-0.000283325451 1.15665234 0)
(-0.000316282629 1.16885594 0)
(-0.000349252027 1.17095904 0)
(-0.000382347586 1.17099386 0)
(-0.000415468412 1.17099411 0)
(-0.000448548391 1.170994 0)
(-0.000481521179 1.17095925 0)
(-0.000514286513 1.16885514 0)
(-0.000546961078 1.15665085 0)
(-0.000579800815 1.13818779 0)
(-0.000612751585 1.11710036 0)
(-0.000645674492 1.09310999 0)
(-0.000678567766 1.06552507 0)
(-0.000711532534 1.03281811 0)
(-0.000750266505 0.991784997 0)
(-0.0042998245 0.934759973 0)
(-0.00391358678 0.832427341 0)
(-1.63455687e-05 0.832251917 0)
(-4.94236668e-05 0.934922877 0)
(-8.28926702e-05 0.991909321 0)
(-0.000116349575 1.03294137 0)
(-0.000149779562 1.06564765 0)
(-0.000183185214 1.0932321 0)
(-0.000216561729 1.11722221 0)
(-0.000249898372 1.13830971 0)
(-0.000283033923 1.15677297 0)
(-0.000315916655 1.16897647 0)
(-0.000348838064 1.17108016 0)
(-0.000381913271 1.17111493 0)
(-0.000415027737 1.1711151 0)
(-0.000448120067 1.17111489 0)
(-0.000481128089 1.17107999 0)
(-0.000513936909 1.16897511 0)
(-0.000546663524 1.15677075 0)
(-0.000579602661 1.13830829 0)
(-0.000612705699 1.11722081 0)
(-0.000645815189 1.09323038 0)
(-0.000678925126 1.06564539 0)
(-0.000712132309 1.03293836 0)
(-0.000751118393 0.991905202 0)
(-0.00429083552 0.934880167 0)
(-0.00390410933 0.832952165 0)
(-1.63458438e-05 0.832374313 0)
(-4.94246423e-05 0.935045293 0)
(-8.28940432e-05 0.992031718 0)
(-0.000116351004 1.03306374 0)
(-0.000149781317 1.06576999 0)
(-0.000183187772 1.09335441 0)
(-0.000216564695 1.11734444 0)
(-0.000249898724 1.13843181 0)
(-0.00028301384 1.15689418 0)
(-0.000315866757 1.16909762 0)
(-0.000348783991 1.17120205 0)
(-0.000381879381 1.17123681 0)
(-0.000415023975 1.17123693 0)
(-0.000448157523 1.17123667 0)
(-0.000481218739 1.17120167 0)
(-0.000514077628 1.16909596 0)
(-0.000546849035 1.15689156 0)
(-0.000579862156 1.13842992 0)
(-0.00061307573 1.11734249 0)
(-0.000646315321 1.09335207 0)
(-0.000679570393 1.06576707 0)
(-0.000712935118 1.03306004 0)
(-0.000752079987 0.992026868 0)
(-0.00428253218 0.935001819 0)
(-0.00389528662 0.833472903 0)
(-1.63557958e-05 0.832496731 0)
(-4.94546968e-05 0.935167727 0)
(-8.29443749e-05 0.992154129 0)
(-0.000116421473 1.03318613 0)
(-0.000149871934 1.06589236 0)
(-0.000183298678 1.09347672 0)
(-0.00021669539 1.11746666 0)
(-0.000250045602 1.13855388 0)
(-0.000283158393 1.15701523 0)
(-0.000316000186 1.16921865 0)
(-0.00034893047 1.17132396 0)
(-0.000382058424 1.17135875 0)
(-0.000415240628 1.17135885 0)
(-0.000448418435 1.17135856 0)
(-0.000481531681 1.17132349 0)
(-0.000514435191 1.16921685 0)
(-0.000547239004 1.15701243 0)
(-0.000580304738 1.13855177 0)
(-0.00061359969 1.11746446 0)
(-0.000646934165 1.0934741 0)
(-0.00068029337 1.06588913 0)
(-0.000713769228 1.03318211 0)
(-0.000753023404 0.992148953 0)
(-0.00427480785 0.935123901 0)
(-0.00388706453 0.833988553 0)
(-1.63714424e-05 0.832619311 0)
(-4.95020357e-05 0.935290317 0)
(-8.30229947e-05 0.992276694 0)
(-0.000116530624 1.03330868 0)
(-0.000150011561 1.06601487 0)
(-0.000183468375 1.09359919 0)
(-0.000216893146 1.11758902 0)
(-0.000250265817 1.13867604 0)
(-0.000283382419 1.15713625 0)
(-0.00031621997 1.16933971 0)
(-0.000349168021 1.17144602 0)
(-0.000382330387 1.17148086 0)
(-0.000415550212 1.17148094 0)
(-0.000448769288 1.17148064 0)
(-0.00048192792 1.17144551 0)
(-0.000514867537 1.16933785 0)
(-0.000547692431 1.15713338 0)
(-0.000580793955 1.13867385 0)
(-0.000614149643 1.11758673 0)
(-0.000647555741 1.09359647 0)
(-0.000680993353 1.06601154 0)
(-0.000714552293 1.03330455 0)
(-0.000753886881 0.992271425 0)
(-0.00426758403 0.935246374 0)
(-0.00387939002 0.834499447 0)
(-1.6389632e-05 0.832742071 0)
(-4.95566841e-05 0.935413081 0)
(-8.31134265e-05 0.992399424 0)
(-0.00011665564 1.03343138 0)
(-0.000150170578 1.06613754 0)
(-0.000183660127 1.0937218 0)
(-0.000217114701 1.11771152 0)
(-0.000250510586 1.13879829 0)
(-0.000283631276 1.15725725 0)
(-0.00031646551 1.1694608 0)
(-0.000349430865 1.17156822 0)
(-0.000382624929 1.17160311 0)
(-0.000415878195 1.17160319 0)
(-0.000449132863 1.1716029 0)
(-0.000482329808 1.17156771 0)
(-0.000515297736 1.16945893 0)
(-0.000548134036 1.15725438 0)
(-0.000581257916 1.13879611 0)
(-0.000614658842 1.11770923 0)
(-0.00064812025 1.0937191 0)
(-0.000681618881 1.06613424 0)
(-0.000715242684 1.03342729 0)
(-0.000754639675 0.992394201 0)
(-0.00426080617 0.935369152 0)
(-0.00387222118 0.835005819 0)
(-1.64078978e-05 0.832865021 0)
(-4.96116831e-05 0.935536029 0)
(-8.3204517e-05 0.992522331 0)
(-0.000116781371 1.03355426 0)
(-0.000150329668 1.06626038 0)
(-0.000183850877 1.09384457 0)
(-0.00021733338 1.11783415 0)
(-0.000250749028 1.13892063 0)
(-0.000283870559 1.15737823 0)
(-0.000316699691 1.16958191 0)
(-0.000349679638 1.17169054 0)
(-0.000382900718 1.1717255 0)
(-0.000416181723 1.17172559 0)
(-0.000449465251 1.1717253 0)
(-0.000482692978 1.17169006 0)
(-0.000515681565 1.16958007 0)
(-0.000548521242 1.15737539 0)
(-0.000581657104 1.1389185 0)
(-0.000615091011 1.11783193 0)
(-0.000648595173 1.09384195 0)
(-0.000682141803 1.06625717 0)
(-0.00071581708 1.03355027 0)
(-0.000755263868 0.992517232 0)
(-0.00425443463 0.935492189 0)
(-0.00386552589 0.835507924 0)
(-1.6425129e-05 0.83298816 0)
(-4.96634179e-05 0.935659159 0)
(-8.32899073e-05 0.992645413 0)
(-0.000116898671 1.0336773 0)
(-0.000150477101 1.06638338 0)
(-0.000184025906 1.09396749 0)
(-0.000217531679 1.1179569 0)
(-0.000250962072 1.13904304 0)
(-0.000284079949 1.15749917 0)
(-0.000316900322 1.16970305 0)
(-0.00034989019 1.17181299 0)
(-0.000383132356 1.17184802 0)
(-0.00041643494 1.17184811 0)
(-0.000449740951 1.17184783 0)
(-0.000482992317 1.17181253 0)
(-0.000515994747 1.16970126 0)
(-0.00054883078 1.1574964 0)
(-0.000581969357 1.13904099 0)
(-0.000615425471 1.11795478 0)
(-0.000648961655 1.09396499 0)
(-0.000682545809 1.0663803 0)
(-0.000716261847 1.03367347 0)
(-0.000755749031 0.992640484 0)
(-0.00424843018 0.935615452 0)
(-0.00385926918 0.836006007 0)
(-1.64403521e-05 0.833111483 0)
(-4.97091371e-05 0.935782463 0)
(-8.33649132e-05 0.992768659 0)
(-0.000117000798 1.03380051 0)
(-0.000150604386 1.06650653 0)
(-0.000184175695 1.09409055 0)
(-0.000217699364 1.11807976 0)
(-0.000251138336 1.1391655 0)
(-0.000284246595 1.15762007 0)
(-0.000317053724 1.16982421 0)
(-0.000350048813 1.17193554 0)
(-0.000383305941 1.17197064 0)
(-0.000416623469 1.17197075 0)
(-0.000449945076 1.17197048 0)
(-0.000483212796 1.17193512 0)
(-0.000516222409 1.16982247 0)
(-0.000549048042 1.15761737 0)
(-0.000582180794 1.13916355 0)
(-0.000615650129 1.11807776 0)
(-0.000649209481 1.09408818 0)
(-0.000682821995 1.06650361 0)
(-0.000716569898 1.03379685 0)
(-0.000756089712 0.992763931 0)
(-0.00424276508 0.935738911 0)
(-0.0038534258 0.836500305 0)
(-1.64530066e-05 0.833234976 0)
(-4.97469804e-05 0.93590593 0)
(-8.34267102e-05 0.992892057 0)
(-0.000117084469 1.03392385 0)
(-0.000150707681 1.06662981 0)
(-0.000184295522 1.09421372 0)
(-0.000217830292 1.1182027 0)
(-0.000251270893 1.13928799 0)
(-0.000284363494 1.15774091 0)
(-0.00031715204 1.16994538 0)
(-0.000350146454 1.17205817 0)
(-0.000383412124 1.17209336 0)
(-0.000416738024 1.17209347 0)
(-0.000450068167 1.17209321 0)
(-0.000483344964 1.1720578 0)
(-0.000516355237 1.16994369 0)
(-0.000549164409 1.1577383 0)
(-0.000582283896 1.13928616 0)
(-0.000615757784 1.11820083 0)
(-0.000649331454 1.0942115 0)
(-0.00068296391 1.06662707 0)
(-0.000716735497 1.0339204 0)
(-0.000756280626 0.992887547 0)
(-0.00423741097 0.935862547 0)
(-0.0038479699 0.836991042 0)
(-1.64626706e-05 0.833358624 0)
(-4.97760367e-05 0.936029543 0)
(-8.34740809e-05 0.993015592 0)
(-0.00011714767 1.03404733 0)
(-0.0001507841 1.06675321 0)
(-0.000184381571 1.09433699 0)
(-0.000217920176 1.11832572 0)
(-0.000251354819 1.1394105 0)
(-0.000284425096 1.15786168 0)
(-0.000317189904 1.17006653 0)
(-0.000350177856 1.17218087 0)
(-0.00038344538 1.17221614 0)
(-0.00041677287 1.17221626 0)
(-0.000450104746 1.17221602 0)
(-0.000483384039 1.17218055 0)
(-0.000516388883 1.17006492 0)
(-0.000549175352 1.15785916 0)
(-0.000582273836 1.13940878 0)
(-0.000615743544 1.11832399 0)
(-0.000649323287 1.09433493 0)
(-0.00068296792 1.06675065 0)
(-0.000716755406 1.03404408 0)
(-0.000756319138 0.993011312 0)
(-0.00423234341 0.935986336 0)
(-0.00384287811 0.837478431 0)
(-1.64691702e-05 0.833482412 0)
(-4.97958323e-05 0.936153288 0)
(-8.35058064e-05 0.993139246 0)
(-0.000117188503 1.03417091 0)
(-0.000150831175 1.0668767 0)
(-0.000184431247 1.09446033 0)
(-0.000217966765 1.11844877 0)
(-0.000251388405 1.13953299 0)
(-0.000284429684 1.15798236 0)
(-0.00031716495 1.17018767 0)
(-0.000350140201 1.17230362 0)
(-0.000383402513 1.17233897 0)
(-0.000416724643 1.17233911 0)
(-0.00045005112 1.17233887 0)
(-0.000483325477 1.17230334 0)
(-0.000516318129 1.17018612 0)
(-0.000549075776 1.15797993 0)
(-0.000582146256 1.13953139 0)
(-0.000615603984 1.11844719 0)
(-0.000649181955 1.09445845 0)
(-0.00068283092 1.06687433 0)
(-0.000716626829 1.03416787 0)
(-0.000756202989 0.993135203 0)
(-0.00422754104 0.936110261 0)
(-0.00383813019 0.837962671 0)
(-1.64724888e-05 0.833606322 0)
(-4.98057328e-05 0.936277146 0)
(-8.35210773e-05 0.993263001 0)
(-0.000117206427 1.03429458 0)
(-0.000150848706 1.06700027 0)
(-0.000184444194 1.09458373 0)
(-0.000217968552 1.11857185 0)
(-0.00025136899 1.13965545 0)
(-0.000284374294 1.15810294 0)
(-0.000317074218 1.17030878 0)
(-0.000350030393 1.1724264 0)
(-0.00038328038 1.17246184 0)
(-0.000416590272 1.17246198 0)
(-0.000449904736 1.17246176 0)
(-0.000483167122 1.17242617 0)
(-0.000516140996 1.1703073 0)
(-0.000548863839 1.15810061 0)
(-0.000581899296 1.13965398 0)
(-0.000615337101 1.11857041 0)
(-0.000648905079 1.09458202 0)
(-0.000682550326 1.0669981 0)
(-0.000716347061 1.03429176 0)
(-0.000755929197 0.993259202 0)
(-0.00422298381 0.9362343 0)
(-0.00383370756 0.838443951 0)
(-1.64724373e-05 0.833730336 0)
(-4.98055369e-05 0.936401099 0)
(-8.35193928e-05 0.99338684 0)
(-0.000117200186 1.03441832 0)
(-0.000150834453 1.0671239 0)
(-0.000184417759 1.09470716 0)
(-0.000217923523 1.11869492 0)
(-0.000251295528 1.13977785 0)
(-0.000284258465 1.15822339 0)
(-0.000316916916 1.17042984 0)
(-0.000349847475 1.17254918 0)
(-0.000383078364 1.17258471 0)
(-0.000416368677 1.17258487 0)
(-0.000449663689 1.17258466 0)
(-0.000482907112 1.17254901 0)
(-0.000515855825 1.17042843 0)
(-0.000548537612 1.15822116 0)
(-0.000581530915 1.13977651 0)
(-0.000614940792 1.11869364 0)
(-0.000648490913 1.09470563 0)
(-0.000682124942 1.06712192 0)
(-0.000715914934 1.03441573 0)
(-0.00075549627 0.993383288 0)
(-0.00421865158 0.936358436 0)
(-0.003829591 0.838922445 0)
(-1.64687945e-05 0.833854435 0)
(-4.97949501e-05 0.936525128 0)
(-8.35003583e-05 0.993510741 0)
(-0.000117169428 1.03454211 0)
(-0.000150788456 1.06724755 0)
(-0.000184351802 1.0948306 0)
(-0.000217831202 1.11881797 0)
(-0.000251166807 1.13990018 0)
(-0.000284080031 1.15834372 0)
(-0.000316691277 1.17055083 0)
(-0.00034958978 1.17267196 0)
(-0.000382794159 1.17270758 0)
(-0.000416057918 1.17270775 0)
(-0.000449326397 1.17270756 0)
(-0.000482543728 1.17267183 0)
(-0.000515460712 1.1705495 0)
(-0.000548095558 1.15834159 0)
(-0.000581039743 1.13989897 0)
(-0.000614413587 1.11881685 0)
(-0.000647937795 1.09482925 0)
(-0.000681552602 1.06724578 0)
(-0.000715328168 1.03453975 0)
(-0.000754902627 0.993507441 0)
(-0.00421452763 0.936482649 0)
(-0.00382576423 0.839398319 0)
(-1.64617439e-05 0.833978599 0)
(-4.97738193e-05 0.936649215 0)
(-8.34638496e-05 0.993634686 0)
(-0.000117114164 1.03466593 0)
(-0.000150710316 1.06737122 0)
(-0.000184246095 1.09495403 0)
(-0.000217690998 1.11894097 0)
(-0.000250982227 1.14002241 0)
(-0.000283839063 1.15846389 0)
(-0.000316396695 1.17067175 0)
(-0.000349256414 1.17279471 0)
(-0.000382427334 1.17283042 0)
(-0.000415657191 1.1728306 0)
(-0.00044889184 1.17283042 0)
(-0.000482075591 1.17279463 0)
(-0.000514953749 1.17067049 0)
(-0.000547535263 1.15846186 0)
(-0.000580423501 1.14002133 0)
(-0.000613753624 1.11894001 0)
(-0.000647243875 1.09495286 0)
(-0.000680831692 1.06736966 0)
(-0.000714585556 1.0346638 0)
(-0.00075414639 0.993631641 0)
(-0.00421059733 0.936606918 0)
(-0.00382221405 0.839871732 0)
(-1.64509683e-05 0.834102809 0)
(-4.9741685e-05 0.936773338 0)
(-8.34088567e-05 0.993758654 0)
(-0.000117032968 1.03478975 0)
(-0.000150599132 1.06749488 0)
(-0.00018409964 1.09507743 0)
(-0.00021750219 1.1190639 0)
(-0.000250741576 1.14014451 0)
(-0.00028353505 1.1585839 0)
(-0.000316032605 1.17079257 0)
(-0.000348846485 1.1729174 0)
(-0.000381976366 1.17295321 0)
(-0.000415165212 1.1729534 0)
(-0.000448358906 1.17295324 0)
(-0.000481501874 1.17291738 0)
(-0.000514334611 1.17079138 0)
(-0.000546856372 1.15858197 0)
(-0.000579681313 1.14014356 0)
(-0.00061295991 1.1190631 0)
(-0.00064640842 1.09507643 0)
(-0.000679961381 1.06749352 0)
(-0.000713685606 1.03478786 0)
(-0.000753225952 0.993755867 0)
(-0.00420684368 0.936731226 0)
(-0.00381892399 0.840342832 0)
(-1.64366021e-05 0.834227045 0)
(-4.9698844e-05 0.936897479 0)
(-8.33361402e-05 0.993882624 0)
(-0.00011692661 1.03491357 0)
(-0.000150454604 1.0676185 0)
(-0.000183911645 1.09520076 0)
(-0.000217264024 1.11918674 0)
(-0.000250443887 1.14026647 0)
(-0.000283166962 1.15870372 0)
(-0.000315598312 1.17091328 0)
(-0.000348359755 1.17304003 0)
(-0.000381441146 1.17307593 0)
(-0.000414581466 1.17307614 0)
(-0.000447726839 1.17307598 0)
(-0.000480821615 1.17304006 0)
(-0.000513601825 1.17091217 0)
(-0.000546057416 1.15870189 0)
(-0.000578812208 1.14026566 0)
(-0.000612031233 1.11918609 0)
(-0.000645429881 1.09519995 0)
(-0.000678940145 1.06761736 0)
(-0.000712627217 1.0349119 0)
(-0.000752140508 0.993880097 0)
(-0.00420325469 0.936855551 0)
(-0.00381588263 0.840811759 0)
(-1.64183893e-05 0.834351286 0)
(-4.96446142e-05 0.937021617 0)
(-8.3244634e-05 0.994006576 0)
(-0.000116793823 1.03503734 0)
(-0.000150276078 1.06774207 0)
(-0.000183682262 1.09532401 0)
(-0.000216976308 1.11930945 0)
(-0.000250088453 1.14038827 0)
(-0.00028273451 1.15882334 0)
(-0.000315093093 1.17103386 0)
(-0.000347794709 1.17316256 0)
(-0.000380820498 1.17319855 0)
(-0.000413905042 1.17319878 0)
(-0.000446994505 1.17319864 0)
(-0.000480033409 1.17316265 0)
(-0.000512754033 1.17103282 0)
(-0.000545137258 1.15882162 0)
(-0.000577815256 1.14038759 0)
(-0.000610967144 1.11930897 0)
(-0.000644307788 1.09532339 0)
(-0.00067776731 1.06774114 0)
(-0.000711409372 1.03503592 0)
(-0.000750888699 0.994004311 0)
(-0.00419981756 0.936979873 0)
(-0.00381307776 0.841278646 0)
(-1.63965671e-05 0.83447551 0)
(-4.95792657e-05 0.93714573 0)
(-8.31342067e-05 0.994130489 0)
(-0.000116634653 1.03516106 0)
(-0.000150063531 1.06786555 0)
(-0.000183410648 1.09544715 0)
(-0.000216638734 1.11943203 0)
(-0.000249675761 1.14050988 0)
(-0.000282237337 1.15894274 0)
(-0.000314516475 1.1711543 0)
(-0.000347151234 1.17328498 0)
(-0.000380113791 1.17332107 0)
(-0.000413135251 1.17332131 0)
(-0.000446161517 1.17332119 0)
(-0.000479137372 1.17328512 0)
(-0.000511791365 1.17115333 0)
(-0.000544095171 1.15894112 0)
(-0.000576688939 1.14050934 0)
(-0.000609765755 1.11943171 0)
(-0.000643040546 1.09544673 0)
(-0.000676441443 1.06786484 0)
(-0.000710030436 1.03515988 0)
(-0.00074946875 0.994128489 0)
(-0.00419651955 0.937104171 0)
(-0.00381049759 0.841743619 0)
(-1.6370808e-05 0.834599697 0)
(-4.95024525e-05 0.937269798 0)
(-8.30049477e-05 0.994254341 0)
(-0.000116448933 1.0352847 0)
(-0.000149816706 1.06798894 0)
(-0.000183096882 1.09557017 0)
(-0.000216250544 1.11955444 0)
(-0.000249204492 1.14063129 0)
(-0.000281675006 1.15906191 0)
(-0.000313868162 1.17127456 0)
(-0.000346428984 1.17340727 0)
(-0.000379320753 1.17344346 0)
(-0.00041227108 1.17344371 0)
(-0.000445226504 1.1734436 0)
(-0.000478132029 1.17340747 0)
(-0.000510712295 1.17127368 0)
(-0.000542930071 1.1590604 0)
(-0.0005754326 1.14063089 0)
(-0.000608426619 1.11955428 0)
(-0.000641627607 1.09556993 0)
(-0.000674961749 1.06798844 0)
(-0.000708490087 1.03528376 0)
(-0.000747880399 0.994252608 0)
(-0.00419335 0.937228425 0)
(-0.00380813183 0.842206797 0)
(-1.63412796e-05 0.834723825 0)
(-4.9414176e-05 0.937393799 0)
(-8.28565842e-05 0.99437811 0)
(-0.000116236341 1.03540824 0)
(-0.000149534734 1.0681122 0)
(-0.000182739797 1.09569303 0)
(-0.000215811418 1.11967666 0)
(-0.000248674601 1.14075247 0)
(-0.000281046831 1.15918083 0)
(-0.000313147307 1.17139465 0)
(-0.000345626959 1.17352941 0)
(-0.000378440628 1.17356569 0)
(-0.000411312734 1.17356596 0)
(-0.000444189859 1.17356586 0)
(-0.000477016934 1.17352966 0)
(-0.000509516015 1.17139384 0)
(-0.000541641368 1.15917942 0)
(-0.00057404605 1.1407522 0)
(-0.000606949498 1.11967667 0)
(-0.000640068317 1.09569299 0)
(-0.000673327692 1.06811192 0)
(-0.000706787185 1.03540754 0)
(-0.000746122413 0.994376646 0)
(-0.00419029871 0.937352612 0)
(-0.00380597054 0.842668293 0)
(-1.63078139e-05 0.834847872 0)
(-4.93141069e-05 0.937517712 0)
(-8.26886068e-05 0.994501775 0)
(-0.000115996456 1.03553165 0)
(-0.000149217897 1.06823531 0)
(-0.000182340122 1.09581572 0)
(-0.000215321587 1.11979867 0)
(-0.000248086238 1.1408734 0)
(-0.000280353082 1.15929948 0)
(-0.000312354014 1.17151453 0)
(-0.000344745048 1.17365137 0)
(-0.000377472759 1.17368775 0)
(-0.000410259088 1.17368803 0)
(-0.000443050456 1.17368795 0)
(-0.000475791792 1.17365167 0)
(-0.000508202331 1.1715138 0)
(-0.000540228258 1.15929818 0)
(-0.000572527675 1.14087327 0)
(-0.000605332906 1.11979885 0)
(-0.000638361977 1.09581587 0)
(-0.000671538525 1.06823525 0)
(-0.000704921539 1.03553119 0)
(-0.000744194614 0.994500582 0)
(-0.00418735584 0.937476712 0)
(-0.0038040043 0.843128218 0)
(-1.62702247e-05 0.834971815 0)
(-4.92020455e-05 0.937641514 0)
(-8.25009454e-05 0.994625314 0)
(-0.000115729006 1.03565491 0)
(-0.000148865483 1.06835826 0)
(-0.000181896527 1.0959382 0)
(-0.000214779733 1.11992045 0)
(-0.000247438503 1.14099406 0)
(-0.000279593184 1.15941785 0)
(-0.000311487664 1.17163419 0)
(-0.000343782899 1.17377313 0)
(-0.000376417174 1.17380962 0)
(-0.000409109898 1.17380991 0)
(-0.000441807649 1.17380984 0)
(-0.000474455603 1.17377349 0)
(-0.000506770434 1.17163354 0)
(-0.000538690041 1.15941666 0)
(-0.00057087731 1.14099407 0)
(-0.000603576516 1.11992079 0)
(-0.000636507515 1.09593855 0)
(-0.000669593336 1.06835842 0)
(-0.000702891882 1.03565471 0)
(-0.00074209562 0.994624393 0)
(-0.00418451266 0.937600701 0)
(-0.00380222489 0.843586671 0)
(-1.62286482e-05 0.835095631 0)
(-4.90780364e-05 0.937765183 0)
(-8.22933879e-05 0.994748704 0)
(-0.000115433553 1.03577801 0)
(-0.00014847691 1.06848101 0)
(-0.000181409069 1.09606047 0)
(-0.000214186342 1.12004197 0)
(-0.000246731094 1.14111443 0)
(-0.000278766427 1.15953591 0)
(-0.000310547734 1.17175361 0)
(-0.000342739477 1.17389468 0)
(-0.00037527271 1.17393126 0)
(-0.000407864611 1.17393157 0)
(-0.000440461431 1.17393152 0)
(-0.000473008302 1.17389509 0)
(-0.000505219789 1.17175304 0)
(-0.000537026189 1.15953483 0)
(-0.000569094251 1.14111458 0)
(-0.000601679786 1.12004248 0)
(-0.00063450509 1.09606101 0)
(-0.000667492172 1.06848139 0)
(-0.000700697985 1.03577805 0)
(-0.000739824912 0.994748058 0)
(-0.00418176018 0.93772456 0)
(-0.00380062375 0.844043753 0)
(-1.61831787e-05 0.835219297 0)
(-4.89420821e-05 0.937888697 0)
(-8.20657699e-05 0.994871923 0)
(-0.000115110291 1.03590091 0)
(-0.000148052603 1.06860354 0)
(-0.000180877635 1.09618249 0)
(-0.000213540943 1.12016321 0)
(-0.000245964198 1.14123449 0)
(-0.000277873057 1.15965366 0)
(-0.000309533948 1.17187277 0)
(-0.000341615004 1.17401598 0)
(-0.00037403953 1.17405267 0)
(-0.000406522331 1.17405299 0)
(-0.000439010383 1.17405295 0)
(-0.000471448687 1.17401646 0)
(-0.000503549526 1.17187228 0)
(-0.000535235742 1.15965268 0)
(-0.000567177363 1.14123479 0)
(-0.000599641658 1.1201639 0)
(-0.0006323531 1.09618323 0)
(-0.000665233371 1.06860414 0)
(-0.000698338912 1.0359012 0)
(-0.000737381652 0.994871552 0)
(-0.00417909079 0.937848264 0)
(-0.00379919376 0.844499558 0)
(-1.61332719e-05 0.83534279 0)
(-4.87934182e-05 0.938012032 0)
(-8.18177732e-05 0.994994947 0)
(-0.000114758625 1.0360236 0)
(-0.000147591889 1.06872583 0)
(-0.000180301631 1.09630424 0)
(-0.000212842794 1.12028415 0)
(-0.000245137029 1.14135421 0)
(-0.000276912369 1.15977107 0)
(-0.000308446111 1.17199165 0)
(-0.000340408804 1.17413703 0)
(-0.000372716733 1.17417382 0)
(-0.000405083268 1.17417416 0)
(-0.000437454774 1.17417413 0)
(-0.000469776458 1.17413756 0)
(-0.000501759076 1.17199124 0)
(-0.00053331829 1.1597702 0)
(-0.000565126585 1.14135466 0)
(-0.000597461747 1.12028501 0)
(-0.000630051291 1.09630518 0)
(-0.000662816538 1.06872666 0)
(-0.000695813536 1.03602415 0)
(-0.000734765263 0.994994854 0)
(-0.00417649659 0.937971791 0)
(-0.00379792693 0.844954173 0)
(-1.6079591e-05 0.835466086 0)
(-4.86328377e-05 0.938135165 0)
(-8.1549338e-05 0.995117756 0)
(-0.000114378371 1.03614605 0)
(-0.000147094419 1.06884786 0)
(-0.000179681002 1.0964257 0)
(-0.000212092339 1.12040478 0)
(-0.000244249825 1.14147359 0)
(-0.000275884606 1.15988812 0)
(-0.00030728388 1.17211023 0)
(-0.000339120455 1.1742578 0)
(-0.000371304026 1.17429469 0)
(-0.000403546193 1.17429504 0)
(-0.000435793521 1.17429503 0)
(-0.000467991104 1.17425838 0)
(-0.000499847746 1.1721099 0)
(-0.000531272486 1.15988737 0)
(-0.00056294041 1.14147418 0)
(-0.000595138991 1.12040581 0)
(-0.000627598768 1.09642684 0)
(-0.00066024116 1.06884892 0)
(-0.000693121353 1.03614685 0)
(-0.000731973988 0.995117942 0)
(-0.00417396915 0.938095118 0)
(-0.00379681622 0.845407682 0)
(-1.60214283e-05 0.83558916 0)
(-4.84594696e-05 0.938258072 0)
(-8.12600961e-05 0.995240323 0)
(-0.000113969116 1.03626824 0)
(-0.00014655995 1.0689696 0)
(-0.000179015245 1.09654685 0)
(-0.000211288589 1.12052505 0)
(-0.000243301606 1.1415926 0)
(-0.000274788682 1.1600048 0)
(-0.000306046458 1.17222849 0)
(-0.000337749433 1.17437826 0)
(-0.000369800812 1.17441526 0)
(-0.000401910788 1.17441562 0)
(-0.000434026106 1.17441563 0)
(-0.000466091659 1.1743789 0)
(-0.000497814841 1.17222824 0)
(-0.000529098405 1.16000416 0)
(-0.000560618635 1.14159333 0)
(-0.000592672823 1.12052626 0)
(-0.000624994711 1.09654819 0)
(-0.00065750576 1.06897089 0)
(-0.000690261112 1.03626929 0)
(-0.000729007365 0.995240791 0)
(-0.00417150305 0.938218221 0)
(-0.00379585618 0.845860171 0)
(-1.59591934e-05 0.835711989 0)
(-4.82736009e-05 0.938380729 0)
(-8.09500006e-05 0.995362626 0)
(-0.000113530827 1.03639014 0)
(-0.000145988195 1.06909103 0)
(-0.000178304234 1.09666766 0)
(-0.000210431646 1.12064496 0)
(-0.000242292348 1.14171121 0)
(-0.000273624491 1.1601211 0)
(-0.000304733666 1.17234641 0)
(-0.000336295483 1.1744984 0)
(-0.000368206896 1.1745355 0)
(-0.000400177073 1.17453588 0)
(-0.000432152474 1.1745359 0)
(-0.000464078013 1.1744991 0)
(-0.000495660006 1.17234624 0)
(-0.000526794775 1.16012056 0)
(-0.000558160034 1.14171208 0)
(-0.000590062052 1.12064634 0)
(-0.000622238183 1.0966692 0)
(-0.000654609969 1.06909255 0)
(-0.000687232205 1.03639145 0)
(-0.00072586441 0.995363378 0)
(-0.00416909105 0.938341078 0)
(-0.00379504022 0.846311719 0)
(-1.58925986e-05 0.835834547 0)
(-4.8074987e-05 0.938503113 0)
(-8.06191333e-05 0.995484643 0)
(-0.000113063806 1.03651174 0)
(-0.000145379544 1.06921213 0)
(-0.000177547739 1.0967881 0)
(-0.000209521135 1.12076448 0)
(-0.00024122207 1.14182941 0)
(-0.000272392203 1.16023698 0)
(-0.000303345526 1.17246397 0)
(-0.000334758321 1.17461819 0)
(-0.000366521969 1.17465539 0)
(-0.00039834411 1.17465578 0)
(-0.000430171464 1.17465582 0)
(-0.000461949251 1.17461895 0)
(-0.000493382243 1.17246388 0)
(-0.000524361092 1.16023656 0)
(-0.000555564373 1.14183043 0)
(-0.000587306615 1.12076604 0)
(-0.000619328868 1.09678985 0)
(-0.000651553314 1.06921388 0)
(-0.000684034239 1.0365133 0)
(-0.000722544659 0.995485679 0)
(-0.00416672733 0.938463662 0)
(-0.00379436264 0.846762404 0)
(-1.58216924e-05 0.83595681 0)
(-4.78634803e-05 0.9386252 0)
(-8.0266833e-05 0.995606348 0)
(-0.000112566951 1.036633 0)
(-0.000144733042 1.06933287 0)
(-0.000176745786 1.09690817 0)
(-0.000208557425 1.12088359 0)
(-0.000240090948 1.14194718 0)
(-0.000271091725 1.16035244 0)
(-0.000301881712 1.17258115 0)
(-0.000333137609 1.17473761 0)
(-0.000364745397 1.17477492 0)
(-0.000396411989 1.17477532 0)
(-0.000428083791 1.17477537 0)
(-0.000459705684 1.17473843 0)
(-0.000490981931 1.17258115 0)
(-0.000521797669 1.16035212 0)
(-0.000552831366 1.14194834 0)
(-0.00058440602 1.12088532 0)
(-0.000616266334 1.09691012 0)
(-0.0006483349 1.06933485 0)
(-0.000680666356 1.03663482 0)
(-0.000719047346 0.995607669 0)
(-0.00416440679 0.93858595 0)
(-0.00379381891 0.847212296 0)
(-1.57464035e-05 0.836078751 0)
(-4.7639011e-05 0.938746965 0)
(-7.98933614e-05 0.99572772 0)
(-0.000112040934 1.03675391 0)
(-0.000144049122 1.06945324 0)
(-0.000175898079 1.09702783 0)
(-0.000207539982 1.12100227 0)
(-0.000238898294 1.1420645 0)
(-0.000269722467 1.16046745 0)
(-0.000300341928 1.17269793 0)
(-0.000331433385 1.17485664 0)
(-0.000362877561 1.17489405 0)
(-0.000394380461 1.17489447 0)
(-0.000425888597 1.17489454 0)
(-0.000457346746 1.17485751 0)
(-0.000488458349 1.17269801 0)