/*--------------------------------*- C++ -*----------------------------------*\
  =========                 |
  \\      /  F ield         | OpenFOAM: The Open Source CFD Toolbox
   \\    /   O peration     | Website:  https://openfoam.org
    \\  /    A nd           | Version:  dev
     \\/     M anipulation  |
\*---------------------------------------------------------------------------*/
FoamFile
{
    version     2.0;
    format      ascii;
    class       volScalarField;
    object      p;
}
// * * * * * * * * * * * * * * * * * * * * * * * * * * * * * * * * * * * * * //

dimensions      [1 -1 -2 0 0 0 0];

internalField   nonuniform List<scalar>
1200
(
269426.444889126
259785.896566678
245735.035412628
228247.511852751
208574.441521737
187858.599021482
167277.674826677
147491.038197839
129267.379856287
112647.524455275
98021.4930243596
85067.428204245
73753.9761052602
63691.8464120311
54244.8749514609
46361.459626815
40021.2570783651
34636.5032313418
30166.0302073584
26419.3680297105
23232.2363188486
20763.8537159472
18650.2426381909
16972.0994756401
15574.4342583547
14503.9464702583
13569.2604228382
12761.1716812677
11849.5748100971
12687.395744905
19975.6180935777
78128.6190733002
241371.924375384
265882.560430488
221213.988188099
213161.1088573
216467.81012882
214218.665290469
207065.909882813
199895.488567385
195373.210891711
189917.48530505
184313.900223523
181827.766065365
181431.778276467
180070.085900231
175138.440441202
165373.513505172
152311.352154373
138281.701660379
124009.893843328
109650.802045081
95619.539326675
82827.7795826434
71472.4315856341
61941.5859860682
53979.2127516842
47440.2797145812
42633.8694790828
35839.3471848894
269259.16470176
258952.86364689
244082.249678039
225822.926660203
205590.320111802
184600.250283636
164028.600891767
144475.44303989
126626.839467501
110440.539227021
96301.1125461484
83735.5960567757
73034.8193940756
63540.6632980127
55835.281515781
48996.8231853901
42884.6271545277
37368.9458642009
32745.7423061785
28797.2455554102
25564.4990399317
22941.4867006661
20443.2094101018
18421.7830876791
16645.9758687378
15407.1743278283
14142.6530589667
13767.9913393082
14626.786113937
21076.8706148151
39402.8843582553
62537.0920113656
144480.731843448
221329.34698226
216939.038168516
215967.32791035
216528.269438791
213314.276160105
206353.051702212
199984.290383883
195534.779385846
190086.009444576
185109.726275946
182990.04262574
182110.609516885
179791.928434165
173727.909607448
163290.458600949
150267.149966889
136295.291384429
121661.470964252
107359.045786133
93772.3224329376
81702.5392046346
70982.8344498269
62040.8711037919
54533.0734127794
48291.2321853195
43701.3097869566
37116.3205898327
268921.377076055
257406.432918441
241128.10248781
221592.337145491
200447.158244874
178997.097926428
158391.0850807
139121.488707346
121743.775047454
106109.523758586
92477.5801509919
80367.8600019627
69984.6469924073
60755.7578142205
52879.2705814146
45835.5982381946
40149.5633506598
35166.6705921484
31354.1638970285
27905.9918109411
25205.2988674711
22634.4045664922
20781.4521552358
18843.0932364018
17473.5701968014
15916.8712677865
16115.9347015906
18298.3606744072
25064.8863854197
38824.6278232764
57050.5452188414
68466.0943443912
87501.133313458
145001.617384532
199339.557154864
218393.940712456
216558.62506855
212029.416193937
204939.401377124
199632.112037456
195318.653871252
190052.187188099
186025.993176213
184091.755826
182370.808269708
178246.166517305
170795.080691559
159735.292584677
146688.952991247
132214.285679675
117167.57870245
103315.000649756
90568.6600875698
79625.9769235602
69823.1090192647
61686.0163024637
54622.6581421321
48759.1312847095
44353.756674285
37971.78693355
268318.222542462
254782.144366361
236287.539454749
214881.927430492
192548.523992868
170638.625088698
150200.544040988
131513.061747512
114957.69611647
100224.266726092
87450.4659934845
76099.4904590589
66442.0919687807
57731.5451482341
50573.1061762701
44078.7806877774
38990.2851780266
34420.2763438611
30955.3775446893
27768.531377821
25343.2046837424
22930.2188471387
21342.8515543581
19558.3740956945
19287.3520195061
20415.1743117118
25138.7102479434
33572.8192923459
44209.0423537218
55146.6811378864
64646.1633395772
73237.608596654
79622.6129452405
94536.1566290037
138573.907606885
191863.468078552
212293.491990686
212378.047822208
205567.595330141
200303.539833143
194742.829056157
189718.336852886
187166.361070617
185172.068281568
181862.584524821
175172.779219248
166334.971985578
154715.277882364
139887.624380197
124510.439877058
109977.565544569
97403.878658191
86015.4785845923
76395.7900899814
67773.7634340651
60973.1650289177
54655.4836324562
49598.2962838315
45471.1614351889
39687.7289081283
267261.797389228
250488.184142342
228764.165965915
204970.204652011
181377.379801428
159274.207717966
139353.285381818
121590.815703552
106102.200293543
92414.979834024
80577.1726870052
70149.3823242396
61344.4298525655
53601.5754237182
47579.2973383087
42483.8110365464
38427.0578816888
34632.798327056
31439.9093382821
28530.5618189715
26344.4268892551
24348.3126521509
23737.3055314759
24958.8533915971
28535.8557319712
34114.1697781901
42990.0279793209
50961.6072919177
56953.7487950394
62615.7056673818
67540.5324459477
72804.2194478162
78902.9439672803
86702.9346164271
99521.2826645248
135085.780032055
184180.734595657
203585.294989411
204018.366817564
201902.149932854
195677.360316244
190353.784263683
188001.639568675
184810.509998247
179917.66647753
171209.945062832
158119.274999206
143194.278145116
128393.320653159
114940.397631493
102701.416988167
91969.9015126773
82287.7862132821
74011.2999181352
66591.8035401818
60689.5377811736
55446.73702683
51032.9955556412
47590.4326411154
43190.58610037
265339.497767244
243432.420635662
217337.298679027
190920.00001663
166508.681525654
144891.395969476
126278.336829243
110125.512692637
96320.2714390665
84217.2539518242
73836.9173175976
64980.0174854885
57516.2631808436
51220.9271220164
46040.708348478
42125.4734314622
38634.9446684534
35380.9591295752
32719.4331663592
30475.2808932301
29928.2009235519
31318.2083169023
33877.1853403914
39208.2329247607
45255.9922283004
51274.5624827859
57304.6266379353
61649.2969897937
65630.7796889499
70024.9110097584
73592.6097202725
77049.0826358565
81618.5204175809
87045.7230989732
92928.4034388309
102352.089261061
130789.337847655
172634.611063586
197307.403443887
200091.944355039
195616.384366864
191947.653477965
189198.072136319
184346.599006331
174262.09886245
160136.006463233
144370.77514024
129737.808130641
116691.376047101
105354.075261343
95147.0160655408
86064.8754619156
78257.0036438521
71805.1869184965
66252.4814546719
61216.2099685776
57239.5521580141
53646.5302779051
51229.6854024418
49526.921238606
261535.609374682
231545.430829788
200221.231918358
171761.219069139
147683.736600152
127587.353969157
110839.823499495
96674.6847972134
84763.3695645325
74937.2512802234
67028.4585212246
60810.8695202885
55726.1820778185
51480.4618536527
46951.9323123431
43246.9838721583
40348.8505248717
38412.2553558075
38503.414224105
39533.5653852455
42494.1750072462
46418.4997001702
49849.0394996231
54729.0924003048
57646.8969383488
60528.7761322877
63654.9505067802
66738.0749175438
70124.896602243
73673.2734718813
77214.7791160296
80931.615972218
84890.5222459659
88849.6125046473
92538.9506617374
96712.7800510462
103868.916794176
126292.60117992
165641.990392321
191171.383928174
191237.731752149
193206.943578786
189795.685828606
179801.076269666
163373.15007289
146042.319025835
130370.254883715
117441.482702958
106409.669717757
97224.877614959
89160.3350335855
82016.3130302701
76338.1610036462
71523.1899161869
67391.4788005559
63639.1182759864
61412.0761845157
59653.5821354257
58985.0585321927
59013.8768919958
253033.71308037
211069.817916422
175387.19638382
147538.848580624
126360.472981195
109807.020943941
96700.9833373031
85900.4987751922
77047.469083181
69982.2478847855
64436.118826617
59719.6135886157
55635.4108408684
52598.3564049653
49899.5077539172
48327.2447665045
49073.921288075
50415.9775428998
52436.829825675
55202.8890073021
58951.8588837821
61062.3611656304
63349.42448487
66381.6558470884
67551.6481798931
68613.4796633555
70533.943910455
72730.1428063571
74914.0985994903
77400.887345263
80558.6835830775
84289.790773703
87582.1402018253
90620.6281378292
93442.1931410138
95979.8360990664
99047.8631994334
105328.607217048
124974.69796297
159299.288024735
185205.406908769
198302.847631957
188808.510861192
168810.828450433
147537.657499966
130095.491999445
116315.605609936
105720.656163617
97377.1690025841
90468.2617376096
84917.0280633206
80529.6241502302
76514.4186266021
73265.6317628017
71405.4950426537
69373.8580709488
68648.7100604162
68492.0294775012
68000.9187967622
67931.1563930601
232391.897626206
177589.774908524
142670.300429211
119755.762062366
103916.481198679
91564.4174498644
82962.6266125951
78028.3172786158
73638.9821858425
69780.9266351043
66301.2205304921
63310.197099032
61452.7483256102
61480.0037942776
61185.2749705169
61847.846962883
63397.6127129735
63530.2364929584
65510.4968086552
66985.5945313179
67825.6586189065
69695.0343733679
71186.5201938581
72596.985055584
74591.2574196041
75773.1860692749
77127.5046271935
79413.850638406
80868.9380669007
82459.6718991396
84901.2402747587
88085.5985021592
90945.4328311427
92736.2413241345
94655.3980419147
96866.6344554556
99205.7688062756
101845.314908064
107092.757559805
124128.074633282
160798.79841093
191016.969432604
172445.339988638
149372.979431843
130533.674373006
116616.446339139
106151.62289803
98226.8885211142
92563.3643685477
87856.0620676122
84393.5035008034
81809.2621303962
79982.7298194715
78706.3287908407
78369.3191633425
77279.1208975767
76618.5805862854
77193.579187099
76998.5343484646
76628.0111261816
182476.653774389
134865.744781988
111037.105766172
98462.8514895454
90270.3975438152
83907.3886367354
79118.3560554029
78056.9055126414
77506.8880687337
76246.0219542363
75569.6929779773
74350.7884082784
73971.0414380448
74432.5203094257
73937.2551730771
75352.6002574471
76106.5719806119
75297.9699602046
76446.3020488132
76876.1290932534
76094.1001988235
77138.8580132582
77772.0089801037
78337.3142842225
80414.2173053658
81394.4213840245
82904.7928218205
85436.2336284341
87220.9589052036
88937.0566945857
90974.3121712225
91097.4719527416
92003.0755101588
93890.3712668627
96079.2006523019
98424.5720905135
99933.144865696
101633.623059727
102863.854985496
108893.823845865
132975.206331134
167302.74362388
151833.449772057
133286.775829319
118592.00047605
108300.870179519
101051.161168603
95825.5014307129
92365.075153896
89855.4158617571
88056.0157482311
86868.5003842344
85656.5380033923
84753.4758533312
84846.0090929909
84206.868798546
83487.7674932463
84069.661876
83826.7487537125
83406.606573697
76307.1946664514
107618.352818164
101552.996995158
97227.8622910239
93955.4740475104
92072.0722310396
90021.6603881602
87929.4696486562
86272.3553565336
84602.0145238559
84296.4294403431
83363.2279342182
83705.5552375758
84112.6125218874
83339.5162945699
84337.4812491455
84442.899224769
83394.8565731132
83830.3280227418
84441.0446190829
83685.3291036264
84407.720526937
85227.7957963991
85730.5150811508
87328.525896869
88168.0050672487
88919.6847420993
89837.0748179864
90666.6330128542
91918.8124200879
92712.2139346471
93884.2720253743
95349.9138163138
96845.5280630899
98002.7651832458
99113.9181978312
99996.2929353648
101100.999394373
101703.242353985
104308.060716569
117124.070863232
137324.057630551
129307.144638637
118727.15224379
109829.742652297
103424.015785309
99287.0596469533
96146.8654588679
94303.2989403972
93147.8646334014
92603.0252254633
92278.3165250697
91494.5405127039
91113.7432607832
91734.4625255571
91095.5016280618
90219.2739758258
90703.6084538263
90398.4349232821
90081.3058998891
88838.3726146301
101901.884999848
101237.446471974
101473.514893793
100523.462314868
99384.5288184576
96867.1030642837
95644.6669898733
95013.6520946123
94574.1384660833
94843.0813573646
94139.5702769222
94841.6633770726
94347.6753214924
93203.6290388472
93504.6854188818
93086.1641074192
91931.2725719815
91992.1977459399
91835.0568565804
91168.2864973415
91091.9057992543
91304.333915682
91087.4507557605
91446.6086271331
91701.1357268554
92532.0591144675
93547.2029829596
94265.5348540057
94837.0448338207
95806.9239640215
96797.3581656013
97430.2953617921
97828.9487008676
98376.9258087679
99193.0046083205
100167.860913895
100882.383898741
101959.66863277
103499.945805478
109857.54672939
117007.537551471
114381.833809563
109900.54634909
105547.644835174
102233.306105363
100004.352622364
98396.8839268603
97447.7950604186
96962.5908088253
96848.3394024314
96559.8033290175
95681.1131368588
95337.9638794407
94920.5442434518
93806.0576439477
93047.4021676198
93531.3332027999
93214.14561679
93495.3258820661
98805.1155767095
99978.8472180071
100143.476585983
99810.4290151906
100319.791166213
100353.75485749
100204.895649888
100533.794991741
100218.016199769
100073.931009775
99279.6364443607
98174.1338219123
97686.6242619106
96474.2891400279
95796.6532465945
95969.9165749297
95215.9534593572
94832.6262562864
95058.0035575954
94841.9854236262
94565.4588676757
94332.7391417296
94329.3648564022
94741.5899540067
95100.3870928257
95713.0828863523
96187.70705189
96549.2861849253
96749.3437103722
97077.0256928913
97344.7244966602
97672.3566514085
98082.250642542
98591.6655461326
99057.5411946526
99587.2646737782
100104.950520139
100650.110240266
101503.442572244
102571.182296574
104877.91199668
106857.809171512
106523.228675019
104896.833125442
103224.035036578
101677.083283432
100637.705188232
99846.7093512474
99348.0037509335
99131.2701638804
99035.169790961
98761.6827599866
98276.5750181609
98366.2807674312
97843.6210516736
97463.2294799927
97525.3850921348
98035.56128074
97851.2935491717
98216.9079066696
100037.040950005
100679.802741414
101450.286583332
101221.545127408
100659.405486972
100678.478148972
100500.328844437
100654.264484998
100803.31740544
101100.025551194
101020.526880498
101162.378110918
100989.428354687
100601.616350719
100752.15524933
100650.582453364
100032.374040779
99933.4043318052
99686.7017417496
99199.1691621802
98778.383687937
98368.7384986675
98110.8981442138
97908.6125334082
97734.7238779891
97454.6678003951
97422.9260666304
97429.3336214881
97649.0993662813
97966.7127505708
98347.0986883412
98698.9675676842
98996.0934981977
99188.1881501106
99432.9694470992
99707.0183574622
100147.945247963
100572.475509802
101161.309117454
101792.972803803
102538.980209878
103129.941906726
103145.750534217
102509.080196801
101906.146309914
101238.776386085
100850.234793993
100515.519282456
100306.772090704
100203.026042107
100082.927468259
99921.6610382228
99767.6295915102
99770.8592901004
99371.4252507285
99283.7787204625
99393.3553661855
99322.3699288139
99243.8698097685
99369.855735086
100073.835686081
100453.885047292
101019.692517252
101522.461038891
102015.880639255
102028.731536485
101662.212737586
101296.023756028
101044.432563003
100798.560844837
100657.049360124
100577.185722737
100311.766593539
100168.071134209
100179.22778319
99943.9156141674
99757.0519729341
99703.9689461793
99450.8238137041
99248.3783435045
99205.3515729468
99163.2880844197
99063.4492494898
99031.1726692993
98998.8281747037
99009.4872188571
99065.3065419142
99188.7594058141
99267.7746234886
99321.8252781894
99340.2230305882
99351.5570384388
99380.2983521721
99473.4023654121
99642.024090292
99858.8476496057
100091.494657319
100296.646444874
100508.537197434
100811.734795573
101198.167797443
101564.91752769
101752.961623652
101656.474697312
101539.091094998
101285.020461356
101171.011011835
101040.921992542
100979.831851241
100953.706513618
100900.183394096
100876.973830986
100854.158039474
100810.254296685
100719.559401414
100746.694721155
100822.233278147
100672.134582603
100791.628504933
101017.703045544
99724.0351242771
100222.804168092
100736.924588414
101075.840650023
101513.288639092
101693.918095458
101850.325901052
101950.041229357
101911.557657678
101737.261303413
101447.084714576
101055.298783519
100603.113877698
100189.364169547
99752.1683665642
99278.0924684521
98918.1526196105
98579.6922463831
98288.3714292326
98156.6741320403
98157.1365484462
98145.650855575
98158.9617286645
98335.5612582577
98548.4705289661
98841.5799392837
99165.3064986105
99441.3531373017
99662.988913112
99844.7792519582
100018.31845692
100176.323713747
100342.539518241
100515.752014415
100720.171839959
100872.066993947
100961.071883201
100937.476505748
100861.649703881
100792.292228184
100786.169135752
100849.093823155
100951.773432655
100970.009918607
100989.387378123
100878.254591149
100840.622926998
100766.549502591
100737.124733612
100701.689117961
100681.83386915
100671.584507199
100675.059805224
100642.179989115
100690.749648806
100717.007509241
100781.405296591
100743.217905594
100906.076459405
101107.377861509
99602.2276253471
100090.042070521
100385.553022942
100600.806728681
100759.982513691
100892.812917531
101029.495119302
101151.61437839
101240.752317624
101410.439922301
101566.8390646
101679.526050264
101702.627890626
101615.335069306
101372.95971709
101013.567723093
100604.99586705
100196.383424932
99860.7040105783
99594.5343658667
99354.2497184412
99121.1285376961
98917.0952724461
98758.6536606733
98620.1754037201
98526.7369338745
98502.1456392588
98527.1397896602
98602.6233939043
98683.4493456717
98776.498563145
98902.9920737274
99148.8468232587
99532.1615911473
100001.93915462
100445.205096637
100798.010843196
101006.146098986
101094.503069236
101067.06362672
101022.199928568
100995.107939625
101005.567407567
101039.229665343
101095.627880577
101055.372150553
101048.992475764
100997.174500575
100975.774297392
100948.266158255
100962.86653023
100984.114226184
101031.548579704
101021.240779413
101041.593737925
100957.050395357
100946.639507571
100979.308946386
101076.65070656
101339.572523248
100134.087596039
100344.925328908
100389.390852543
100341.86754007
100210.316823367
100072.171423587
100028.727268969
100105.008570707
100226.373800831
100442.463192879
100720.365701276
101032.241908971
101299.950190784
101477.385127246
101539.580607349
101510.047418243
101415.307199365
101302.396016587
101207.739204267
101113.386741543
100982.468657181
100826.808018588
100623.429165907
100354.154862557
99998.9428701652
99607.7944675757
99251.2159152455
98969.7716799295
98755.8760899101
98635.6250620435
98562.072432436
98533.4599891998
98645.7985737231
98963.4090269192
99349.1689850211
99712.5514146312
100051.434678394
100333.509554455
100579.235366768
100755.000407295
100913.238790248
101029.080250937
101073.59795896
101100.666012097
101133.445497006
101106.02485913
101099.934850903
101035.657302424
100987.390182616
100908.082485306
100876.104775598
100853.688025654
100913.10745682
100947.623356443
101009.20497619
100999.287870632
100981.526371681
101010.146217011
101055.410759917
101292.895302559
100688.204361432
100653.441590816
100607.37432059
100483.276896607
100290.258558002
100092.757840972
99972.8381752074
99962.2721192799
100001.437678529
100126.454856561
100300.253448575
100516.105201276
100721.806279222
100887.73501585
100999.3075807
101062.677356976
101080.633949155
101071.550701934
101058.114726564
101043.790189771
101026.48495588
101021.156996097
100993.927918125
100893.246958773
100668.466998801
100343.359980934
99966.831190811
99606.5767678234
99257.0100012342
99009.8615933171
98852.7715399538
98791.9197542217
98860.6697296007
99098.5463383268
99314.937169914
99495.2624796428
99678.9529139458
99862.5719740608
100074.052061621
100271.83516678
100484.880478222
100694.963198971
100890.031252817
101011.834424902
101073.551392266
101061.337982644
101050.558804113
100996.634871211
100969.925979679
100926.916098367
100930.890048706
100948.583509508
101039.488989311
101119.342891435
101226.716612754
101261.265816258
101271.509760637
101308.172239664
101332.980663024
101497.694796336
101245.267889091
101126.200211453
101047.572327502
100844.011735465
100615.659404179
100369.886856977
100116.671192464
99859.1468182043
99667.1497797863
99554.3540176165
99475.7353296111
99433.731899511
99408.6480202089
99384.4504191989
99351.4815944696
99310.7313828053
99274.7263863515
99258.4488239421
99277.7785456343
99343.1521153161
99456.0636983238
99577.0065843185
99646.2856725138
99659.6790529496
99640.7694962151
99623.0284304923
99623.7030811207
99641.2100916967
99640.0291425267
99597.2804225264
99573.0563401456
99646.6739391839
99817.6528610332
100061.735064188
100171.268369921
100214.77027794
100244.296813911
100276.586477232
100326.90704017
100399.997339578
100473.337127855
100609.250655849
100678.052920696
100696.326087581
100656.013003146
100568.028808506
100476.744870393
100391.717765748
100359.822039443
100348.447050532
100383.217322177
100423.842918312
100498.234657146
100582.501435254
100687.847685191
100795.154899292
100889.793811342
100987.323564536
101096.969233732
101274.493957008
)
;

boundaryField
{
    inlet
    {
        type            fixedValue;
        value           uniform 271724;
    }
    outlet
    {
        type            waveTransmissive;
        field           p;
        psi             thermo:psi;
        gamma           1.4;
        fieldInf        101325;
        lInf            0.025;
        value           nonuniform List<scalar>
20
(
36562.2300054432
37796.3395360008
38604.5885832062
40282.1012142189
43735.7987076211
50011.3827879648
59398.8682675419
68240.1422235396
76860.7301618588
83575.1015338783
90186.4734188025
93586.7407655955
98259.2964252222
99393.6110290325
101021.715576502
101089.698393948
101353.834392321
101333.992212855
101507.234628921
101271.59983682
)
;
    }
    freestreamInlet
    {
        type            zeroGradient;
    }
    freestream
    {
        type            totalPressure;
        rho             none;
        psi             thermo:psi;
        gamma           1.4;
        p0              uniform 101325;
        value           nonuniform List<scalar>
60
(
100798.155459262
100760.102007904
100763.313345283
100759.277778931
100751.320951579
100746.022704402
100751.240497807
100752.795490829
100734.117672494
100711.515506551
100659.582095475
100596.741100055
100517.652390508
100430.444448485
100330.382328734
100221.491758425
100102.154067425
99977.389643117
99849.8975607039
99727.4935378841
99608.6551043701
99496.2835889993
99385.8812879018
99288.7019686873
99205.6238267098
99143.6043738349
99102.5126960337
99079.5078173815
99065.2016693364
99062.8088843661
99077.1048626418
99129.278651944
99219.7645488522
99325.072002771
99407.1167931997
99485.3741168172
99562.1541752859
99635.631671476
99699.478993235
99744.6631220351
99766.7251107569
101325
101325
101325
101325
101325
101325
101325
101325
99340.2670524001
101325
101325
101325
101325
101325
101325
101325
101325
101325
101325
)
;
    }
    wedge1
    {
        type            wedge;
    }
    wedge2
    {
        type            wedge;
    }
    defaultFaces
    {
        type            empty;
    }
}

// ************************************************************************* //
