/*--------------------------------*- C++ -*----------------------------------*\
  =========                 |
  \\      /  F ield         | OpenFOAM: The Open Source CFD Toolbox
   \\    /   O peration     | Website:  https://openfoam.org
    \\  /    A nd           | Version:  dev
     \\/     M anipulation  |
\*---------------------------------------------------------------------------*/
FoamFile
{
    version     2.0;
    format      ascii;
    class       volScalarField;
    object      T;
}
// * * * * * * * * * * * * * * * * * * * * * * * * * * * * * * * * * * * * * //

dimensions      [0 0 0 1 0 0 0];

internalField   nonuniform List<scalar>
1200
(
246.500760171405
243.943621693656
240.0923760553
235.073295336536
229.088081311153
222.334752595821
215.077830471114
207.475928020599
199.800540003789
192.098174190167
184.615058714217
177.290565947052
170.210871389752
163.215005214683
155.914124660442
149.096986637
142.986478519463
137.240954802044
131.967559529627
127.103731793076
122.565224606433
118.729642014313
115.166366057234
112.178501514524
109.494463582245
107.310825267917
105.291486475921
103.43930942498
101.31248128822
103.872751704502
122.201981191531
182.234437459597
263.748715720255
271.207402643392
257.710762891362
253.641534361785
254.271324918732
253.210094378205
250.364151333331
247.562620189743
245.712901073815
243.497942513136
241.235715937443
240.155846433284
239.760827209054
239.024109962916
236.924226527329
232.896975991785
227.361207425268
221.126859635549
214.29852549467
206.822754458669
198.807619356881
190.740566500362
182.811025070094
175.464909392979
168.671087371624
162.608630988965
157.551816472628
150.987343488007
246.456967029346
243.719235765179
239.62835005658
234.354479785653
228.143002203448
221.221383649382
213.870442341874
206.24930962897
198.619854018664
191.01025412014
183.678282587957
176.492199307931
169.735369837834
163.131507882335
157.238764474416
151.526736039101
145.924890968423
140.372277545419
135.234615451763
130.422004028671
126.096011510497
122.281134996734
118.347262091471
114.899762068642
111.594058015562
109.189534706168
106.392159367002
105.836892073176
108.124129636944
122.569026007052
149.581624162428
169.512513245407
219.769485921346
251.404527457363
250.681985014561
250.07442173983
250.068000835075
248.80309923105
246.248555237969
243.958997225965
242.318774510209
240.272003905263
238.368835478059
237.440214011329
236.930209313292
235.880460366168
233.436291696969
229.311647864235
224.027543169506
217.96545422388
211.068126215219
203.696520016679
196.010206782131
188.492858609678
181.140894280579
174.386774721134
168.149530813008
162.558020968475
157.877922411631
151.718260640029
246.368450026909
243.301173503186
238.793537792149
233.088553049081
226.495050555877
219.280689697586
211.743861001113
204.036412142977
196.399523427134
188.836466551864
181.557066251615
174.423459354661
167.661216607854
161.033042397529
154.776381412386
148.613497014626
143.123531937453
137.857684601221
133.444071082369
129.115545472847
125.444980404118
121.695388558501
118.768313950937
115.519377868091
113.046385340897
110.200283030863
110.828048364532
116.100702761641
128.614966411111
146.824318312615
164.183516616805
171.892539735606
183.871050169903
215.555275358895
236.720862778736
244.46169536717
244.03909159766
242.608200655733
240.300134652809
238.504389475906
237.02065958007
235.195116967765
233.721458273909
232.849253054413
232.074120764095
230.48819259713
227.817632744849
223.750798475377
218.584931603733
212.363462253261
205.342909881115
198.283383528249
191.181389186048
184.50646112003
177.947756051185
171.978623930467
166.297516773857
161.222934697705
156.90368345274
151.194310977705
246.210132478414
242.588018468414
237.412546594084
231.051800140963
223.916166831845
216.319336922507
208.574725389588
200.805909238431
193.228415288694
185.8025296538
178.695844222424
171.73925160923
165.199403298778
158.714639169717
152.826536607119
146.961593363983
141.915862258387
136.96594274779
132.886363553988
128.831984657089
125.537981976229
122.021632750228
119.626220540311
116.406615449032
116.552225516601
118.986739815079
127.551735053772
139.583071232985
150.973742254671
160.542374636841
167.59326458104
173.302929816979
176.8368549567
185.559973867401
208.09006774257
229.629675345066
236.179177058266
237.192003604346
235.221368147688
233.395864972981
231.497121910551
229.788164834005
228.771459348055
227.935551189279
226.743294041239
224.526027927327
221.462712680543
217.145332685688
211.214402639581
204.555818058031
197.731891087522
191.307279619889
184.987079810665
179.173154620309
173.495234871224
168.644732091617
163.744271617934
159.543182773138
155.726810948673
150.996883693147
245.932530452718
241.413679524222
235.235646136617
227.974048028813
220.154580127836
212.141030889517
204.201413479643
196.406392659883
188.90437088482
181.597663059512
174.62109431937
167.854022743487
161.549627756767
155.468561181202
150.268633463616
145.480726278652
141.365789008957
137.217977269677
133.488349420128
129.812145557109
126.987371752007
123.847301933719
123.603732729566
125.684833196939
131.386253533889
138.76248743603
148.67359482968
156.057163941264
160.69311277417
164.802810796452
167.950489087912
171.27276190669
174.89641494433
179.101491623184
185.837321084368
203.307302786978
222.236840419492
228.815989034402
230.103992806449
229.558707852908
227.452598700088
225.569890443853
224.700392174328
223.68090639962
222.109831358298
219.129031731627
214.30120468958
208.430825780786
202.239289535522
196.207765022076
190.313883706171
184.726795866378
179.314702909141
174.321801337753
169.505956276896
165.41275470034
161.572160481193
158.23060063849
155.308148535295
152.19737072377
245.427044569781
239.452711763374
231.816501054275
223.391313029827
214.833858634373
206.481054809211
198.5432126589
190.951615110101
183.793270025583
176.89859837755
170.395800430938
164.321227769256
158.720951480608
153.545729832427
148.941649371127
145.201956105207
141.651469341863
138.103851274828
135.15753127997
132.09807821027
132.126102673234
134.080143458602
137.511803750294
143.809909106132
150.043538313142
155.328677244816
160.093689279316
163.129674407779
165.688782920561
168.395263562913
170.345316541319
172.187398271104
174.628213234319
177.471754140752
180.383324182267
185.16293682947
198.807041660572
215.704384828305
223.81660289632
225.940240396446
224.451443445124
223.53071500934
222.951927510007
221.430343587806
217.928398310937
212.616899245699
206.365545133465
200.200279497302
194.341082685408
188.899023147087
183.6657542695
178.666588559004
174.162524088959
170.249999389999
166.75862503662
163.410203776389
160.657487190122
158.280118115328
156.091040465645
155.769933098026
244.404073401053
235.943902814994
226.228979406358
216.447068180059
207.267383692572
198.779350746911
190.975269330965
183.730219256592
177.047832108885
171.044740174576
165.735008319866
161.220565701985
157.284978893009
153.764909250593
149.787459762634
146.324984935141
143.497301571622
141.662967901409
141.891340401355
143.097858232521
146.346704804193
150.271878023075
153.311833496129
157.365219078645
159.391638620906
161.239477526234
163.20422893196
165.070279338713
167.058277385709
169.064587365825
170.997184049962
172.951409309565
175.03853347379
177.125145311934
179.159196867265
181.566761362373
185.721993092423
197.056725026547
212.893317473336
222.286197848219
222.752164293712
224.130303639662
223.287218499388
220.102501778636
214.102102464516
207.137534280758
200.323527651445
194.287693429318
188.824299063896
184.003121281501
179.56728095938
175.423470677903
171.960567758668
168.942261664352
166.34186179928
163.92577219407
162.356692958394
161.259727475651
160.638219317307
161.258226676041
241.891042118708
229.114761816431
216.948772453935
206.295028419982
197.268751708392
189.408536738182
182.635236994002
176.729398768185
171.538290042664
167.130065835462
163.355035168796
159.902250587304
156.791140073334
154.441801339099
152.218779723527
151.023753504718
151.751079918359
152.96821214007
154.707532242308
156.988972819179
159.867041114819
161.26545566655
162.719559901134
164.716875337664
165.150761343968
165.546970089155
166.523835627542
167.656426474875
168.795087727634
170.146582902319
171.982271681967
174.164832794508
176.246958079978
178.370931842116
180.360227726396
182.295659045301
184.654516947042
188.872767989206
200.14451326163
215.571154689167
225.31634426368
230.329597800333
227.148748769519
220.130210938475
211.710968049026
203.875909944684
196.989168760142
191.212106331296
186.343698031826
182.097956666261
178.592605677776
175.736403421458
172.921078110373
170.548434758322
169.029509098181
167.510468351151
166.870669375174
166.706217107503
166.203607101161
166.460911898754
235.51399408385
217.803395542329
204.530704485263
194.434544435405
186.553832254156
179.8955643125
174.7194848491
171.627292149592
168.880894870401
166.350327829475
164.10627544466
162.081977125729
160.716291783386
160.687114917618
160.399922417938
160.882417266969
161.945210713285
161.86443958784
163.128730901334
163.991031272031
164.395558095866
165.503746056482
166.420832933681
167.281968103455
168.481298374641
169.247665627589
170.110385217174
171.519361584176
172.556809562754
173.774883016794
175.6762323643
178.267027263761
180.701669906357
182.716853928283
184.929580415863
187.487137210959
190.265049655703
193.514827160539
198.268959569084
209.106036346674
227.002957585536
239.263425241296
232.001138193169
221.812487096092
212.452787542217
204.655625453113
198.114352409101
192.687526605589
188.372312646921
184.583616953445
181.568427187356
179.115447869038
177.353606765214
175.956386006662
175.236820331465
174.013111538854
173.241000104358
173.521410720729
173.227914737871
173.221044259991
227.289066892316
209.758451227742
197.368636036987
189.270991623667
183.342982265879
179.251531272615
175.94869103853
173.98428288749
172.747634525276
171.237948164935
170.333871921643
169.183753035012
168.740523762468
168.921737014122
168.508483512208
169.405130666765
169.876638722124
169.365871117287
170.12160581466
170.381116615255
169.893539681945
170.582978810352
171.142733945901
171.661945155324
173.169771775741
174.263253776681
175.854804668669
178.146817350249
180.122926862684
182.172094498719
184.512783802597
186.111088641517
188.234756107603
191.25089122484
194.717861401887
198.494037547443
202.030076760044
205.932808436198
209.239977346145
215.392685748049
231.084548641403
248.581420152035
240.976448607479
230.270010988049
220.211997118268
212.00035215133
205.385427339815
200.113808655893
196.06858028652
192.81382197258
190.137893890071
188.10809451801
186.251540821918
184.726533763789
184.151030869625
183.05293161297
182.024675167198
182.264159809035
181.925087520214
181.819607166769
236.502638489302
238.172223402125
226.122954321558
214.04756845005
204.18574171525
196.789491254594
191.610067127351
187.685903817804
184.587245068673
181.849655630519
180.46871470364
178.825640134028
178.677866143889
178.610989362063
177.891245502095
178.46789384512
178.550064841611
178.056894426216
178.506386807678
179.242676254242
179.113964690185
179.807159531025
180.879927258429
181.813996598852
183.436828032427
184.950943675204
186.677654196961
188.758198530942
191.020150911127
193.811436527392
196.469916728268
199.66107389372
203.282721426279
207.193214975321
211.082138684496
215.149088971617
219.174607163143
223.410145012661
227.400695773163
231.903441853056
243.139479809404
256.551467560981
251.070770696516
242.581268363699
233.938476537786
226.419664704598
220.145108082996
214.92952032012
210.70621260842
207.41067609118
204.776572213523
202.617789520587
200.425895703543
198.741647883571
197.88574358795
196.513221662722
195.019195091202
194.945563391678
194.357787046113
194.168811218794
274.873325719648
278.472412330721
270.496077075072
260.143410122034
248.240042920791
235.684345639879
224.947544938874
217.446478876818
211.733553907638
207.179761950419
204.026092471558
200.953954666913
199.380181967552
197.776079460665
195.914672158821
195.4696138225
194.759079369164
193.938747381566
194.155693711924
194.393546435949
194.590077652565
195.249264694862
196.394275115107
197.517380846785
199.156245732827
201.107280654547
203.602421835077
206.499506350073
209.486135939333
212.684910663756
216.371078870763
220.25385399963
224.006043362741
227.728701246522
231.626888541104
235.774944280638
239.946061172805
243.824912413383
247.932126915458
251.715180526534
259.104700700959
265.307838364833
262.649300441229
257.475881827472
251.404686045199
245.6773323036
240.267138931584
235.582838547879
231.537498102281
228.105897780421
225.177561929739
222.403434117868
219.466318475763
217.035166172964
214.917726248303
212.732029218466
210.991531256376
210.582536998845
209.703329025744
209.87400651794
294.204739111019
292.566584057406
290.158917115211
285.977410503989
280.606815363616
272.772311466512
264.657741065869
257.512967816127
250.441368333189
244.009877589598
237.961946010481
232.498922690296
228.289972666548
224.471035109181
221.662502645825
219.931503632244
218.20307161432
217.371521275744
217.161743593334
217.01441450694
217.282875904987
217.984157308639
219.160268046697
220.962838833468
223.105781907309
225.705059295442
228.36901805459
231.126763396268
233.952900842776
237.041632672483
240.214639440342
243.486415145606
246.806127072145
250.200779126348
253.515782436443
256.811717361327
259.911090554689
262.876313561757
265.852177453991
268.662768432946
272.327477952521
274.565487950252
273.70969083378
271.027309464413
267.545375123823
263.692880979242
259.996433594662
256.38718753195
253.035231115248
250.010050211705
247.193539082989
244.402761202479
241.571852201931
239.281987275637
236.903562011714
234.96842375825
233.572629664939
232.923941601368
231.98965191561
231.87800205854
296.459993788339
296.192496671981
296.151426298542
295.081936259204
293.085555301085
290.516961307522
287.08055933269
283.535523680005
279.677483060041
275.66876570206
271.296994450096
267.123258953879
263.058421927884
259.315763792258
256.467021317071
254.017704190579
251.782224101051
250.364980229273
249.214234350692
248.34554780331
248.01275558177
248.110425418955
248.611027689908
249.520887572736
250.791573420555
252.19666348058
253.953357602478
255.873528388947
258.043118064343
260.355450249264
262.746549508748
265.105291733817
267.370023213754
269.498227822212
271.575425068641
273.571512468332
275.544381401877
277.37775245457
279.139064924848
280.766024788694
282.266649587762
282.964452913208
282.544645654492
281.237919014685
279.446619937435
277.286268238856
275.158197610571
272.925143222691
270.730414883571
268.614423383725
266.494039560568
264.368948411542
262.273660817677
260.414929067339
258.413966272132
256.879140489068
255.673116676183
254.681448744693
253.84725766587
253.216996128414
296.563944770082
296.507325208177
296.727921981408
296.939136124012
296.931300895466
296.352581427304
295.244643291888
293.914702159337
292.422657647094
290.609123828053
288.596829195751
286.442376799911
284.106988461291
281.930072778572
280.026116890614
278.167323628644
276.541651506327
275.223569059031
274.036120690897
273.168767714705
272.730929078699
272.579051641367
272.637123075692
272.940159278148
273.432434585031
274.129046118822
275.024968383798
276.07869422427
277.161775534352
278.267165419661
279.356975390603
280.428893573715
281.468402077668
282.497307106882
283.510989158459
284.492941400506
285.415250893658
286.251272678716
287.004109001947
287.732751772506
288.369809495532
288.646575817653
288.496912950245
287.970610280434
287.20236381913
286.173229295275
285.14162921558
284.004192840503
282.855023952806
281.689667483538
280.462803558727
279.245267618831
278.025564918314
276.845077705828
275.676678067808
274.722387551239
273.903868737575
273.031897446835
272.390166435043
271.830299419329
296.105483602248
296.302867163903
296.673940807291
296.891814934329
297.134392569616
297.202725792909
297.197570107043
297.027905482089
296.60971074271
295.989523153495
295.213957903642
294.277959853523
293.21561012001
292.109947305539
290.946568844831
289.749398338513
288.678244412215
287.692408064041
286.839169869458
286.228606468067
285.838173302456
285.538327650609
285.3886106097
285.499504892934
285.722407456307
286.125655606873
286.662039052134
287.213882635819
287.754046310635
288.283678635825
288.805996651735
289.299271002168
289.766862752198
290.209680484039
290.65165034082
291.038704030336
291.362764884627
291.580155220699
291.737621446031
291.836315793769
291.874890453915
291.846398808272
291.742987059131
291.511537645751
291.23931666589
290.825381384742
290.407420897717
289.901408719272
289.378756593584
288.808779582173
288.220123765683
287.62980674238
287.044391533459
286.44097947992
285.904848518678
285.375313615509
284.866446677648
284.242452350347
283.724239880591
283.326310939351
295.779659757596
296.091358150596
296.361429531024
296.525743091558
296.690920231456
296.842031950723
296.954504912569
296.98562825833
296.949847615827
296.988817976249
296.994841081826
296.901975908545
296.668446906429
296.30686882238
295.793849438257
295.174607857332
294.522221928657
293.881505665717
293.324148940736
292.846872901157
292.410862506721
292.008875180137
291.68366777361
291.462688032318
291.311423670908
291.248886173334
291.276819139665
291.359791172581
291.493248823846
291.629071674796
291.762293148832
291.907657261844
292.145964313683
292.497222983463
292.9195232387
293.326720098056
293.664457299698
293.888647051064
294.017310768309
294.031614640259
293.978790372829
293.880741142501
293.781145924817
293.71211033815
293.68686268762
293.563912115315
293.409765007752
293.174749663004
292.928777102319
292.653980911354
292.402625583008
292.156495156653
291.931044982592
291.652576279285
291.375618864618
290.970375322879
290.569160900085
290.152070933787
289.782665633754
289.681163325537
296.09918444731
296.252702903853
296.299401149766
296.257655717903
296.186992858599
296.131911089108
296.134432190236
296.223402726805
296.34067502799
296.509745357293
296.692641869325
296.857619881352
296.945498576507
296.952476998586
296.866469244096
296.691794224549
296.468119897514
296.233486346587
296.020446188038
295.811763128188
295.583751038515
295.360833500197
295.131050338737
294.870935538944
294.554406479681
294.2143633973
293.905550822572
293.638810453294
293.413987045253
293.257785524191
293.133886851647
293.058439989724
293.117785926205
293.353114201703
293.659881811246
293.95392094871
294.224561084834
294.441304882315
294.630160808236
294.763901206056
294.858920935705
294.900328109407
294.893575351307
294.911192892413
294.942900295126
294.870403332819
294.755803053358
294.569546000503
294.384388955594
294.168477452401
293.986101494824
293.805544116128
293.696423900765
293.569872567427
293.456824151493
293.220490271946
292.950402887489
292.750250974263
292.630730739392
292.731196737923
296.520388093444
296.476875564898
296.425669785735
296.326972593418
296.199607678697
296.075949290818
296.009210615756
296.010017897625
296.045519822168
296.161663808983
296.322720456519
296.514629748154
296.681087582287
296.785288906178
296.819380415431
296.79569806896
296.724892245081
296.620207650039
296.509341805497
296.404561881525
296.309627990248
296.234521469975
296.147878317477
296.022414422635
295.798255704885
295.496628072148
295.153117521899
294.826421778448
294.510821007757
294.263090245072
294.082553709314
293.992021567538
294.02089096438
294.193291422741
294.350846810398
294.477362358112
294.591173658321
294.686538257246
294.802664650926
294.912915619237
295.048899498764
295.213428582131
295.37951872244
295.468358241502
295.48091581265
295.386286911267
295.248140107643
295.069411211109
294.916319606817
294.743533269858
294.6034445075
294.456704251102
294.37279877394
294.307883295099
294.30272408892
294.249451568944
294.22389407596
294.304187339462
294.473316044129
294.728881803376
296.957397530946
296.843815452771
296.766649047398
296.600976610018
296.420911503407
296.222489481166
296.01776659302
295.820095204634
295.688735352763
295.625616068157
295.58809178807
295.577092812705
295.574906389719
295.565506030617
295.540043083646
295.49820551912
295.433207536265
295.359114025866
295.308138840709
295.296571620901
295.325244564743
295.379335238299
295.413294109939
295.388981511811
295.330983420455
295.266506282731
295.217478162728
295.187689934277
295.137953176855
295.065800034101
295.024584216708
295.063354667491
295.16939482815
295.346440554386
295.408851591798
295.407824125161
295.398965485309
295.38578857191
295.383936677152
295.410557003364
295.476118544787
295.611171038936
295.665230592388
295.589446879095
295.391939128983
295.178410257129
294.978663314537
294.785033489272
294.629403379338
294.475321450452
294.354470005626
294.253611665508
294.202547595696
294.181576803881
294.245056290165
294.48989105234
294.853083415948
295.275903472284
295.727032181801
296.090868533608
)
;

boundaryField
{
    inlet
    {
        type            fixedValue;
        value           uniform 247.1;
    }
    outlet
    {
        type            zeroGradient;
    }
    freestreamInlet
    {
        type            fixedValue;
        value           uniform 297;
    }
    freestream
    {
        type            totalTemperature;
        psi             thermo:psi;
        gamma           1.4;
        T0              uniform 297;
        value           nonuniform List<scalar>
60
(
296.557959148953
296.525967135668
296.52866728063
296.525274100592
296.518583566195
296.514128301684
296.518515914383
296.519823467752
296.50411682064
296.485107308968
296.44141725763
296.38852944272
296.321933785951
296.248458028911
296.164096009776
296.072222442463
295.971452464379
295.866008302938
295.758161731979
295.654526602504
295.55382336837
295.458521205879
295.364814229905
295.282269074102
295.211655841952
295.15891414689
295.123956569841
295.104381302577
295.092206305473
295.090169845349
295.102336398405
295.146728122355
295.223677896016
295.313168926718
295.382844221104
295.449264801963
295.514395300141
295.576690735481
295.630794910055
295.669068955541
295.687752468379
297
297
297
297
297
297
297
297
295.326128768652
297
297
297
297
297
297
297
297
297
297
)
;
    }
    wedge1
    {
        type            wedge;
    }
    wedge2
    {
        type            wedge;
    }
    defaultFaces
    {
        type            empty;
    }
}

// ************************************************************************* //
