/*--------------------------------*- C++ -*----------------------------------*\
  =========                 |
  \\      /  F ield         | OpenFOAM: The Open Source CFD Toolbox
   \\    /   O peration     | Website:  https://openfoam.org
    \\  /    A nd           | Version:  dev
     \\/     M anipulation  |
\*---------------------------------------------------------------------------*/
FoamFile
{
    format      ascii;
    class       volVectorField;
    object      U;
}
// * * * * * * * * * * * * * * * * * * * * * * * * * * * * * * * * * * * * * //

dimensions      [0 1 -1 0 0 0 0];

internalField   nonuniform List<vector>
1200
(
(317.491053856625 0.029669972398158 0)
(325.38872067425 0.265360255017722 0)
(336.952319588932 0.826182180243691 0)
(351.468964321815 1.78008287533012 0)
(368.042822287271 3.10138643143382 0)
(385.895797893 4.72274118060121 0)
(404.192455736044 6.4833254504141 0)
(422.497898513147 8.34175167756579 0)
(440.172851032355 10.0470894677811 0)
(457.182903708702 11.7474641709175 0)
(473.060719560559 13.0943942202223 0)
(488.037744875309 14.3704397978273 0)
(502.006137385646 15.5683179509431 0)
(515.644356931242 16.4665115814539 0)
(529.883229131934 18.7682205921818 0)
(542.566703877617 19.1862795597623 0)
(553.427971152325 18.2724264525073 0)
(563.324172148096 18.0063063114483 0)
(572.148044051026 17.5625025071265 0)
(580.406822580987 16.6512383459188 0)
(587.889181605285 16.8831346390386 0)
(594.122235721621 14.5739782018291 0)
(599.883441736504 13.9577157690047 0)
(606.179537528221 13.1409298921949 0)
(611.36054128296 11.4756522258106 0)
(617.237973923409 11.3851651269905 0)
(622.187408850474 8.66731483599869 0)
(625.646904686774 11.0424707508884 0)
(631.369480365685 6.98614939400556 0)
(628.052535900419 -4.25680737510335 0)
(603.055728387881 -32.8276405706682 0)
(490.534201397266 -179.661702667898 0)
(315.21651950974 -33.1669007532912 0)
(285.985706193057 -0.768773633153403 0)
(328.178736181009 3.60477576950172 0)
(334.634764762844 2.13198282033504 0)
(331.122348071283 0.830227986745219 0)
(332.775214298857 0.486939836128095 0)
(339.251992464202 0.459961014255811 0)
(346.391514274257 0.17043057162413 0)
(351.420288253437 -0.154708015120998 0)
(357.631538962178 0.00467417381750899 0)
(363.288565602407 0.365679774774019 0)
(366.160844176171 -0.262566024309566 0)
(366.449287388723 -0.336680148936517 0)
(367.766167145716 -0.0930704692844152 0)
(372.912542532072 0.756293182333197 0)
(383.352310869418 2.17589614293726 0)
(397.720496258266 3.81135879764881 0)
(413.695316304662 5.42877360142432 0)
(430.304269308809 7.30820936361105 0)
(447.577999918738 9.46291391962719 0)
(465.211638536572 11.8172017412353 0)
(482.185331459503 13.7301680674307 0)
(498.041462713986 15.5235615187218 0)
(512.361876998459 16.235705825117 0)
(524.957343127728 17.0013374442475 0)
(536.711203468418 16.4304931571868 0)
(544.582496972045 16.4116589083598 0)
(568.644342321213 14.9108420960903 0)
(317.637849792234 0.0846275747769023 0)
(326.072398349024 0.708652194679554 0)
(338.277919109353 2.0646334176211 0)
(353.392217994587 4.20628121869983 0)
(370.419667364271 7.00278121308374 0)
(388.548627649621 10.2683452555846 0)
(406.950934549543 13.6699839006218 0)
(425.241878749459 17.131345511757 0)
(442.850074966748 20.1918925156216 0)
(459.809029142542 23.2366509353103 0)
(475.704031270028 25.4264784198196 0)
(490.883197643484 27.9445723273365 0)
(504.989801101527 29.2830242236239 0)
(518.500555670247 31.4485319454166 0)
(530.590122054198 31.2747869444939 0)
(541.494272573479 33.5631653698709 0)
(551.686846579873 34.7714610005416 0)
(561.620527702701 36.6850388975555 0)
(570.477917987073 36.9237647795909 0)
(579.21456463184 36.8802752014195 0)
(586.557263187622 36.2098163899732 0)
(592.925998349961 34.7182014282796 0)
(600.044595166259 32.183454205776 0)
(607.330973475533 25.5724094611788 0)
(612.290304807935 25.1103604038533 0)
(618.695504595576 16.5053304094704 0)
(618.944451191667 21.530715554585 0)
(625.205740757353 9.32771499293048 0)
(621.248135394161 -2.14500245980918 0)
(584.102759992318 -58.1993764859044 0)
(538.047778509429 -97.770072450244 0)
(486.355187898884 -179.278109906195 0)
(397.411051472146 -80.5858001353263 0)
(308.776843467701 3.4819751162951 0)
(327.39543431046 6.1769119899643 0)
(332.897128532024 -0.742371350469211 0)
(334.625948844644 -2.0331043216398 0)
(337.854945966204 -1.19237458973507 0)
(344.778487920879 -0.0520126009924405 0)
(351.444126136552 0.275887488148448 0)
(356.549478124857 -0.0667080295986145 0)
(362.757689858044 0.173545591359844 0)
(367.798017786643 0.202158820730495 0)
(370.214690967084 -0.937998626749276 0)
(370.916059306942 -0.961288765629332 0)
(373.155985208216 0.0336031643945279 0)
(379.146838582697 2.29173610027316 0)
(389.728931982236 5.59963015038358 0)
(403.354190153198 9.12509714787184 0)
(418.325418119433 12.1898144849807 0)
(434.563179790375 16.0233557268549 0)
(451.164018477016 19.7996998700222 0)
(467.818293461647 23.5329003516219 0)
(483.662454956993 25.9859186328449 0)
(498.753443148899 28.3359900715137 0)
(512.499056797676 28.7564859779677 0)
(524.904535973857 29.0482381144319 0)
(536.778699175114 27.3928818176259 0)
(544.798752899099 26.3307847611731 0)
(568.692201605545 22.4401068652528 0)
(317.926150589292 0.151240575428628 0)
(327.378491982281 1.26849550898147 0)
(340.796509181486 3.66524923414704 0)
(357.051298207329 7.39919447665651 0)
(374.930266736546 12.1812759943854 0)
(393.550027506001 17.6670329488143 0)
(412.055128951703 23.2598748772491 0)
(430.146770431443 28.8623862865726 0)
(447.305997345803 33.6946519554834 0)
(463.622654460486 38.4184553849574 0)
(478.701933565732 41.6899344487142 0)
(492.889938023099 45.3650524871352 0)
(505.780959974644 47.135200500642 0)
(517.751681455271 50.2393175649755 0)
(528.490071510624 50.8704791022466 0)
(538.949368615198 52.9878467149086 0)
(548.690638526455 52.8418615295059 0)
(558.044857880683 54.9032773251098 0)
(566.484278244538 52.9880469889494 0)
(574.10685441633 52.9124934148518 0)
(581.082243623213 50.291320269838 0)
(587.731057728362 49.2801697965149 0)
(593.039081844549 46.4417110321645 0)
(598.410756281759 45.3540884994923 0)
(602.908423687084 42.3909998112843 0)
(608.535723381442 36.2356482599569 0)
(606.338102432952 24.0425037775959 0)
(598.058981665626 -4.27506884100093 0)
(578.851863539528 -44.7986204252778 0)
(529.355802411186 -109.716112767155 0)
(494.150591523009 -141.399507061151 0)
(476.429830035593 -150.772634270976 0)
(461.977525925019 -148.129706579125 0)
(397.376488816428 -65.1053838262238 0)
(354.002696938413 -14.1270999104073 0)
(341.764639407618 1.56592461007645 0)
(343.31841556099 2.04248000071542 0)
(347.30043295403 0.699958128344698 0)
(353.746685462407 0.372437135073136 0)
(359.142817158073 -0.212145720100535 0)
(364.044930754552 0.373315201851449 0)
(369.576785470646 1.50290488138616 0)
(373.486274027523 1.1633405269455 0)
(375.43544983821 -0.518579917115238 0)
(376.465728183369 -0.671673352778812 0)
(380.292098519416 1.30787436380856 0)
(387.807553612188 5.1458270554899 0)
(399.040661867613 9.89349708050453 0)
(412.199392120139 14.5056357105512 0)
(427.401681151768 20.3579330710386 0)
(444.008751585271 27.4085595617404 0)
(460.10948931073 33.1784357473448 0)
(475.916210813817 38.7347746259358 0)
(490.730697751311 41.539367991087 0)
(504.821837336807 44.615628505684 0)
(517.253601516725 44.2876388220917 0)
(528.28716048068 44.6957692068807 0)
(538.284506555243 42.4287512225857 0)
(544.674195718308 41.3326547964111 0)
(565.125185031646 37.3591796019525 0)
(318.430936251215 0.259433018818885 0)
(329.527445561325 2.11083616311601 0)
(344.787277561272 5.97272996991237 0)
(362.598056380968 11.769657631114 0)
(381.50922742915 18.971369242959 0)
(400.552071680124 26.935817764385 0)
(418.984645542118 34.8493302135875 0)
(436.667808277223 42.6307793373513 0)
(453.285659451826 49.3140816387473 0)
(469.090521232049 56.0263114150103 0)
(483.861890510457 61.0574382053843 0)
(497.910062178056 66.9045808041969 0)
(511.032304948552 70.2313139320615 0)
(523.488121915995 75.795169075469 0)
(535.088804936974 76.8295278787169 0)
(546.008056200639 80.5467019577702 0)
(556.451185637623 77.1438747859088 0)
(564.700015457433 78.3123795353532 0)
(572.562856992974 71.1247461789589 0)
(577.413465344158 73.1017058238434 0)
(583.496875121077 65.3288780560823 0)
(587.485982559142 68.2206781086752 0)
(592.779126016485 58.8945537073799 0)
(595.224535576769 61.920301055615 0)
(596.166168538028 46.1190145595048 0)
(593.467873661832 25.9179901443112 0)
(578.354284273771 -12.7104749854529 0)
(553.528612309951 -63.9504070930106 0)
(537.158973687302 -93.7842736400666 0)
(511.568690203149 -123.611196393847 0)
(494.549952084662 -139.914246827474 0)
(485.804063453745 -136.841396194442 0)
(478.706988820743 -135.132420387591 0)
(462.302915209757 -122.028551997869 0)
(416.482792031443 -70.6624242983417 0)
(373.301164312376 -18.1262839806175 0)
(352.875914533849 -1.97502448041433 0)
(353.965814416804 4.01392654138784 0)
(359.972310860767 3.78385250602341 0)
(364.668251059335 1.52370907262839 0)
(369.684540365704 1.05359024940242 0)
(374.07769596572 2.5209026293733 0)
(376.515998067201 1.72572429705831 0)
(377.774774262956 0.808931131297827 0)
(380.055046030048 1.03851468665638 0)
(386.43587642953 3.74297892450404 0)
(395.147484314704 8.09002629487587 0)
(407.130109333716 15.3173667659047 0)
(422.077003036669 24.9723073184476 0)
(437.32710690529 34.4322324347168 0)
(452.040460403347 43.0758618465352 0)
(465.484501962668 48.5823176247286 0)
(478.411764352495 54.2948712681275 0)
(490.606202819268 56.224795938709 0)
(502.075121043162 60.1804427302305 0)
(513.016028458267 58.8675595574788 0)
(523.07244249996 60.2381407460886 0)
(533.012955581163 56.319532882149 0)
(539.365439449084 54.9923826926238 0)
(559.09357175829 47.9226261951586 0)
(319.309920129862 0.453826084476924 0)
(333.050226219802 3.51090614279367 0)
(350.963829322792 9.52494248272125 0)
(370.840851618167 18.1837148467466 0)
(390.795389804518 28.2826033039079 0)
(410.040224310048 39.0475911247868 0)
(427.885279813381 49.0477775732105 0)
(444.505399580068 58.598851699061 0)
(459.661746555616 66.0787057831058 0)
(473.768791238553 73.4024595581127 0)
(486.903513227994 78.2443123037705 0)
(499.072301958936 84.1836157146834 0)
(510.966317790802 86.0248597734645 0)
(522.257980140736 91.6136866806499 0)
(533.271241561115 90.6616823752465 0)
(541.436855539501 93.9466994995525 0)
(550.524174495849 88.3623657658618 0)
(557.296782228374 91.2654530019256 0)
(566.604671073046 83.4580817717961 0)
(572.828488148222 85.6707061111501 0)
(581.063302958288 76.1218681123699 0)
(583.677417484863 76.9281537908985 0)
(586.862641537978 59.4688853596237 0)
(584.634914715682 43.1306570558639 0)
(574.254497637004 9.23647834339341 0)
(562.933321731121 -27.5634605530955 0)
(543.271785622676 -64.3360014291249 0)
(523.817425145351 -99.2343988171243 0)
(516.286566033442 -114.238657319346 0)
(508.300794982705 -122.285044491532 0)
(499.347558476037 -129.317826284737 0)
(492.113888371339 -127.228041117025 0)
(484.556404854069 -122.503208101616 0)
(473.826058459029 -122.897367512972 0)
(459.644903197921 -115.142858824754 0)
(422.94036407234 -71.7795963658112 0)
(380.936312860548 -24.5832087990196 0)
(361.717232922745 -2.5025533988743 0)
(361.502310620368 5.59419007316034 0)
(364.201388951356 5.3228959222047 0)
(369.958281727458 4.96515365631175 0)
(373.674905219755 4.63612871111493 0)
(375.195653729763 2.36539853609984 0)
(376.822748803633 1.27071509469444 0)
(381.46237184349 3.37410867832657 0)
(390.173215440889 7.75266573758721 0)
(403.017465133963 16.8028623742265 0)
(417.090229923578 28.2955902692763 0)
(431.466964444003 40.4358808968686 0)
(445.08350474754 50.3413227354512 0)
(458.300726264008 59.35919465787 0)
(470.781096452727 64.5730174334708 0)
(482.772571695068 70.5511014780485 0)
(494.552470311916 71.1726588960062 0)
(504.494959150787 73.992221007165 0)
(514.756841719685 68.5246075435077 0)
(521.469347934069 70.5728256753376 0)
(531.162218379705 61.9089069304342 0)
(533.577956266804 63.0874222925532 0)
(550.658139470085 49.871117596685 0)
(320.914433066772 0.854258376833183 0)
(338.785969886749 6.01966072868577 0)
(360.345376744401 15.4437319112525 0)
(382.366831082913 27.8438544595864 0)
(403.174261864815 41.672653907311 0)
(422.05859971527 55.2987101601609 0)
(439.105322220791 68.1745062220955 0)
(454.588444748632 80.1986275874957 0)
(468.62106735337 90.2775159308 0)
(481.689317662327 99.8281676693609 0)
(494.12307353762 105.974059405166 0)
(504.956632303399 112.17619543507 0)
(516.215957094438 112.167402726386 0)
(525.479951223153 112.62309353096 0)
(534.83410324821 106.921341863323 0)
(539.900341364957 108.126281049776 0)
(547.495846931531 101.427646199892 0)
(552.904681449605 103.091094504995 0)
(561.382947918921 94.8447496666738 0)
(564.984157055007 91.9796029539956 0)
(567.630127465274 74.0773843438623 0)
(567.861387932848 55.5985832508281 0)
(564.185928475641 27.297842326727 0)
(556.638683650457 -3.50027584385166 0)
(543.546444400294 -39.0612588959499 0)
(540.599235533568 -53.0375803470976 0)
(525.779750032162 -75.4042494513203 0)
(515.051509848744 -93.7815642876819 0)
(509.664473828616 -95.5548255453403 0)
(502.938811682778 -98.0695886830026 0)
(494.436010777986 -104.703101892303 0)
(487.41296190064 -110.564638569802 0)
(480.025431767658 -113.779810319006 0)
(471.089499764767 -114.606461445065 0)
(462.03792641489 -114.717252132845 0)
(451.311335936017 -106.635686342827 0)
(424.187154343226 -72.7397606589381 0)
(381.480563582953 -22.6396142149014 0)
(362.450939276943 -2.41047442723602 0)
(364.631861656901 4.01778208916446 0)
(367.317551466336 7.5186519675627 0)
(369.760886973969 6.60480875069294 0)
(371.661530213125 4.30041739335438 0)
(375.397642108616 4.46872649304927 0)
(384.871894594271 9.1254851546581 0)
(397.828554581508 18.5783979264709 0)
(412.675943477831 30.6949766619213 0)
(426.514338207557 42.4606007862619 0)
(439.311395473438 53.8930182356205 0)
(450.723384674884 62.4528798759585 0)
(461.434495759894 70.4330988153074 0)
(471.969456146072 74.8756605061504 0)
(481.375295648152 79.4834219043007 0)
(490.781918214591 78.9873953473994 0)
(498.719166032428 81.0349765556815 0)
(508.368770546543 76.4561323956257 0)
(514.46350869244 75.1796006187281 0)
(523.966020155424 68.7180643652578 0)
(522.396829490168 63.3063692259766 0)
(536.494237311041 44.0737870732293 0)
(324.066386554119 1.80428477525846 0)
(348.388583549443 11.0550785714013 0)
(374.135682749112 25.6825822822563 0)
(397.78327981749 42.9671355338391 0)
(417.787222067639 59.602477744658 0)
(434.765146305344 75.0380981604163 0)
(448.827189626135 86.7984014349128 0)
(461.634092055303 98.0548725707788 0)
(473.298696759615 105.683329318127 0)
(484.602609959347 113.825456260923 0)
(495.12594369249 117.299883668373 0)
(503.369716945505 121.591358593182 0)
(512.290101304265 120.541800610766 0)
(519.721796013443 120.541616317953 0)
(528.946891767691 117.883641080799 0)
(537.298281353688 114.039262862516 0)
(544.049816766499 107.533258161435 0)
(550.12684306336 100.434586086351 0)
(546.986934929628 82.8100142595337 0)
(548.314415349462 61.1522736225533 0)
(548.904157604073 37.0302925178165 0)
(538.677915805107 3.59186498081512 0)
(539.661379628893 -17.6641382951423 0)
(534.181546197046 -41.8283185835985 0)
(521.458319334067 -66.8467943579133 0)
(518.998854009665 -73.0752934911329 0)
(514.780153205517 -81.1708937833949 0)
(506.219989048733 -92.302870873128 0)
(499.734989239326 -94.8317776335674 0)
(493.907599416516 -95.2134117001102 0)
(486.828438820041 -98.3567935971256 0)
(478.647097228113 -102.905495982412 0)
(471.348591447198 -104.502856453923 0)
(464.101328012861 -105.241858219753 0)
(458.781904900868 -104.248602883508 0)
(453.238585577098 -103.630971317084 0)
(445.952096212581 -97.5132105370939 0)
(424.327772915178 -70.4894271197455 0)
(382.379099891018 -23.5946604382358 0)
(365.716397150464 0.323226694480321 0)
(365.215895574782 9.90041918787082 0)
(363.940917542771 7.70405740979247 0)
(366.432436040853 5.7001795707573 0)
(376.132046183544 9.15130533562808 0)
(391.98601916531 19.1584314604062 0)
(408.981501875637 33.3132848542109 0)
(424.375894829796 47.5365389059069 0)
(437.371429752397 60.3811649958519 0)
(448.660824319844 71.2809203098731 0)
(458.379962587285 78.5786938399442 0)
(467.141866411604 85.3676207495033 0)
(476.300554983172 87.1727256676222 0)
(482.885948395319 88.760842020567 0)
(490.281241891185 85.6264874282766 0)
(495.738875550061 85.1637881828901 0)
(502.635680841118 80.4517358816601 0)
(505.800423881368 72.8778018685541 0)
(512.562193772876 62.5326183930748 0)
(511.43132900104 51.1950990596248 0)
(518.368048109172 30.6252073839412 0)
(330.869698555033 4.48101194675271 0)
(365.004583815022 21.8891985755723 0)
(395.099293604619 44.6069950108472 0)
(418.957119510932 67.6245837980635 0)
(437.447870802961 88.2392073460755 0)
(452.221230794102 106.151284522298 0)
(463.939351713618 121.260390944433 0)
(475.10930439853 130.044556302333 0)
(484.343954324004 135.785021981758 0)
(493.333117850071 134.41478591988 0)
(500.867358193885 133.194592955634 0)
(507.330909082578 132.039508578068 0)
(513.222740730587 128.702780132691 0)
(518.930343141739 124.182178514449 0)
(522.366383746074 118.115122989868 0)
(528.8429579658 105.118746198905 0)
(531.616688507021 89.3140896105448 0)
(533.318558968529 70.2366159521781 0)
(530.833889741392 45.4289342892196 0)
(532.363445118505 29.7130867151353 0)
(532.389913401858 12.7925998431885 0)
(522.087374316393 -12.3791929275497 0)
(521.652130214274 -23.9014704666029 0)
(519.976473061668 -34.7362882180772 0)
(510.64622198439 -47.2262246822317 0)
(505.616209878681 -58.3286423508862 0)
(503.791150610547 -65.4772869694 0)
(495.321930783871 -74.2676531339908 0)
(488.005076523784 -80.8074775605616 0)
(482.731276912277 -84.1759307579278 0)
(476.126373413228 -88.279634221698 0)
(468.150142542088 -92.7414706857368 0)
(462.445576060835 -94.5328069503633 0)
(459.011904809678 -95.5578960979862 0)
(456.16197665181 -96.3348495745141 0)
(453.901064674212 -95.2782477132888 0)
(450.478567260502 -92.7259012779567 0)
(443.598698499761 -88.007301675464 0)
(424.741736321014 -68.0069608269896 0)
(386.378539412514 -24.9034493775455 0)
(368.154450448547 1.1859205066726 0)
(354.30345508258 -1.77867168642352 0)
(362.884110742821 2.64859025513261 0)
(381.38848010573 16.0918057158795 0)
(401.557351800575 33.0710719514545 0)
(418.327816639692 47.6925911456817 0)
(432.551860694372 61.1586115860176 0)
(443.555419740462 69.9265950945792 0)
(453.119453796713 79.2140433444452 0)
(461.238932346615 83.48110471134 0)
(468.568926638054 88.8325996380852 0)
(474.923965588826 89.8351183848629 0)
(479.20013507736 89.9029702566123 0)
(485.444830406308 85.2711584395198 0)
(488.91842940581 79.0124207894754 0)
(492.28895804762 71.4574003287853 0)
(494.704215795678 61.5653518187502 0)
(498.145611300744 48.7190793861453 0)
(497.179054592364 36.9237290900757 0)
(501.566020930653 17.838814439002 0)
(348.17599249026 13.8573902278768 0)
(392.677689445642 44.7780384627051 0)
(422.079464193127 74.3498155320765 0)
(441.161632797557 97.1255458895998 0)
(454.312817366083 112.123636284323 0)
(465.92193418268 123.634893261307 0)
(474.014741016997 131.193853166954 0)
(480.028936594975 136.818695003569 0)
(485.341060828505 139.007689802194 0)
(490.67478599 137.6922709743 0)
(497.432351311718 132.658121219728 0)
(501.953027445278 126.032523806758 0)
(508.109125807501 115.034417714858 0)
(511.556532471392 101.725564670494 0)
(509.632519882077 85.2010976277502 0)
(516.625868479593 70.5673276616745 0)
(513.713309112216 51.2026974185021 0)
(512.994038029529 33.0836166659159 0)
(517.702669275921 18.1601384160389 0)
(510.374876738955 0.967880520241698 0)
(509.856167557192 -9.07748974522739 0)
(508.348396359392 -19.86925453579 0)
(501.159179553169 -31.576541959577 0)
(499.878889990626 -37.0819339351182 0)
(496.227904269947 -44.7367561208898 0)
(489.21161541421 -53.9240983664453 0)
(486.823484087903 -59.5679881455098 0)
(482.852983648928 -66.2452202103763 0)
(476.202185602631 -73.7085990706461 0)
(473.1709259724 -79.1048127705268 0)
(468.389285688974 -84.3023587933613 0)
(463.758003374732 -88.0788488599765 0)
(460.747902009233 -89.6751340979506 0)
(459.467485249443 -90.2731446471768 0)
(456.99484769496 -88.9335651011767 0)
(453.085016727542 -88.5946181521118 0)
(449.341537965868 -88.2083429967566 0)
(444.969421255907 -86.399208524337 0)
(436.587553522281 -78.0506153743974 0)
(414.654939662533 -57.1928641838965 0)
(375.455021502991 -23.8167499263247 0)
(344.117040494908 -1.14748917978987 0)
(361.921456762609 18.2384527685203 0)
(385.279033471609 37.745845456238 0)
(406.221591775699 55.2811582516433 0)
(422.606488427737 69.1294536261825 0)
(435.555040152783 79.8590371112232 0)
(445.491896213274 86.5298479942602 0)
(452.994143217485 90.5718922803268 0)
(458.664529528376 92.5054250178747 0)
(464.555935472806 90.870120419648 0)
(466.803864957668 88.0693198098777 0)
(470.905086913517 83.0582273826232 0)
(475.056031581537 76.6955712731736 0)
(478.600490024277 68.9894568918064 0)
(478.864721907413 60.5962186980112 0)
(480.866634320867 51.9969700836889 0)
(483.644237665938 42.1174732722467 0)
(482.49809122612 32.8752890209843 0)
(484.946265203009 16.7943155659551 0)
(382.211422332715 48.3094718798074 0)
(415.269878272147 104.5184254694 0)
(436.165135685745 129.800328371073 0)
(450.256558351165 144.359589517656 0)
(459.543911759144 152.311693584165 0)
(469.800293537182 153.629931268641 0)
(475.296673447749 149.743858549786 0)
(473.333671125999 138.042919639941 0)
(477.061587600458 129.840860513514 0)
(481.124991574062 122.633343618504 0)
(486.487344728937 114.758069558858 0)
(488.322183810719 105.6170558933 0)
(493.944242968433 95.2254322212095 0)
(494.744594546098 82.4049238211503 0)
(493.719636235765 68.1592256824587 0)
(498.763164657558 56.715784696257 0)
(495.934177040423 43.8864986489383 0)
(494.101004893919 30.3785957291292 0)
(497.361920116721 18.1150476127463 0)
(493.096017514411 6.90896781810736 0)
(489.77181925597 -4.53562684464606 0)
(491.271988738019 -14.4951740182026 0)
(485.301383846482 -24.1355255412633 0)
(483.874175706719 -32.1591421862865 0)
(481.913505294507 -39.445723682497 0)
(475.991319222387 -47.488241931117 0)
(473.926899889917 -53.6527205040278 0)
(473.442353393416 -57.9517996402518 0)
(469.042772503914 -64.2496432944394 0)
(467.330364728301 -70.1056540552072 0)
(463.511299160614 -76.9930576711823 0)
(463.330186372187 -78.2477272873668 0)
(459.631202093204 -78.6779673770996 0)
(454.907305516751 -80.402806235303 0)
(449.27514252017 -81.6347712283115 0)
(442.696218435191 -82.4409690418789 0)
(437.139124250496 -81.9474721995301 0)
(431.526557270933 -79.2118468557375 0)
(422.058564729856 -77.0658198017377 0)
(410.023279751591 -67.5986792269831 0)
(375.535893988435 -46.3362179789979 0)
(327.216099462462 -7.91926052478122 0)
(350.059135977974 24.8879906861573 0)
(374.548297199131 47.8959206297197 0)
(396.481468385816 64.390200225064 0)
(413.330193820061 74.1242504001661 0)
(425.837391081351 81.6719927385987 0)
(436.560574724124 83.3790752977478 0)
(444.297677083846 83.6686888413683 0)
(450.40260105783 81.8695451537416 0)
(455.3971333104 78.1419293016351 0)
(460.277191415224 73.5799557021672 0)
(462.861214807561 68.3199563583126 0)
(465.589183087244 63.3517059891733 0)
(468.548720722589 56.6759764660758 0)
(467.8239437062 48.8645227288808 0)
(469.098908800993 41.1733585737902 0)
(471.365184131696 33.0086362073664 0)
(470.346091906712 25.773777770319 0)
(471.432409298256 12.5491988451456 0)
(209.615270600239 49.6777648340543 0)
(265.82297142011 122.741109100692 0)
(342.820577482338 133.520737915677 0)
(387.967168030308 129.789887109041 0)
(417.328953377076 128.533269634263 0)
(436.261455745822 119.200094492072 0)
(452.20632855398 114.237861169632 0)
(461.206426537455 108.824011185016 0)
(464.00299390962 102.413600739326 0)
(467.2509281062 96.3650101967906 0)
(470.493766287061 90.5525068244953 0)
(471.126358027387 82.4062816519518 0)
(475.79158534986 73.8015799780246 0)
(475.541787761812 62.9767598506638 0)
(475.359958557013 51.5837076536502 0)
(479.520902267551 42.0612500445168 0)
(477.918833150864 33.6661533228459 0)
(476.370133177848 23.3072089412223 0)
(479.549044257154 14.6817925623845 0)
(479.111510110261 6.25963288041307 0)
(476.72787718693 -3.06747089188199 0)
(478.806063055895 -11.2399536549383 0)
(475.530455669206 -19.9290230933228 0)
(474.945186021741 -28.3356655396736 0)
(472.891375832823 -35.7626072317996 0)
(469.950934244624 -42.8955021874769 0)
(467.857416476446 -50.1945314091856 0)
(464.853836110053 -54.8356321984467 0)
(461.128257628764 -58.0888877310606 0)
(456.975763493842 -63.3013848691624 0)
(452.320019353699 -64.0452564410685 0)
(446.812679228763 -66.3993981746502 0)
(440.019345798723 -68.8358148733217 0)
(432.304920105707 -72.0570243358046 0)
(424.408780961195 -72.1822657365866 0)
(415.346312942645 -72.2750228425426 0)
(406.578976859293 -68.989727066523 0)
(396.099390401125 -68.6889190774022 0)
(387.530530545302 -63.2938278000039 0)
(371.035572237261 -63.8941020854414 0)
(339.921437677283 -50.6427328235062 0)
(302.725853923642 -11.2742748948939 0)
(319.992994910506 24.9380884775674 0)
(342.604581216043 50.6622594780104 0)
(364.611703856457 66.2538835726316 0)
(383.12612153316 74.4097097462565 0)
(397.02170548451 77.8994721218851 0)
(409.168153746089 78.3216241580929 0)
(417.718049178375 76.0750455715584 0)
(425.060519498175 72.5478898146893 0)
(431.004810687351 68.5176533169076 0)
(436.966967878506 62.8523764775715 0)
(442.155796007338 56.012312718525 0)
(447.308578594403 50.1775915416183 0)
(451.473065513218 43.1732276842171 0)
(452.382521983484 35.0633971046657 0)
(454.787570361516 28.9132727540397 0)
(457.17100839544 22.7320022671134 0)
(457.50797586599 16.8333696846953 0)
(458.468511630066 6.23274727342688 0)
(17.2915420908718 -80.7568433608647 0)
(65.534897223963 0.410366039370339 0)
(156.494936619398 42.2466063220179 0)
(229.153876332843 68.5857553157858 0)
(288.946172098817 80.2629069418543 0)
(331.866502068928 86.4330798139445 0)
(370.669832372434 89.3993447138159 0)
(400.877221939309 90.4815906692124 0)
(418.513928318127 82.1229367652001 0)
(430.92319150731 73.5117510805703 0)
(439.188933597867 63.296255687598 0)
(444.946783261927 53.0392656555824 0)
(450.874886570239 45.8286022699413 0)
(452.678914744729 37.18438360668 0)
(454.574508390614 30.1278540276519 0)
(458.57237117554 23.5975341188816 0)
(458.637374214822 17.7431267546823 0)
(459.068484735677 10.5199600682823 0)
(461.475063259928 3.10184207424753 0)
(460.640526026732 -3.02420571865163 0)
(459.762788485295 -10.5790531282089 0)
(459.692119341384 -17.7561424848213 0)
(458.050887732489 -24.049643298417 0)
(455.842033161942 -28.4663694287384 0)
(452.974713707285 -33.6242294261187 0)
(449.206027950349 -37.1636339965422 0)
(443.500441195065 -42.2261589167718 0)
(436.600521857795 -47.0836397692611 0)
(430.038098987653 -51.3277218930954 0)
(422.843359896782 -53.481428556897 0)
(414.530374552181 -56.9228938212838 0)
(405.361323861984 -59.6068156646111 0)
(395.939920206011 -60.1532278460601 0)
(386.078013216912 -59.0008071291361 0)
(375.220626653976 -57.8128755986476 0)
(363.32777193935 -56.1522003267954 0)
(351.101297974097 -54.0740336747052 0)
(338.876044847688 -51.3569069884933 0)
(326.679176286016 -48.1310524591439 0)
(311.641269383972 -46.7512529477504 0)
(282.605929083583 -37.016133577113 0)
(264.14164294296 -6.82036595718344 0)
(271.297870291607 22.4912104777198 0)
(289.122351481335 42.8437802823127 0)
(309.330896224704 54.8720554688164 0)
(328.460766502826 59.9206531747748 0)
(344.461631349424 62.0222783735797 0)
(358.786211445581 61.2567698698744 0)
(370.568562206715 59.2468073430354 0)
(380.162952196759 55.8459314596559 0)
(388.499498115609 53.2221826504605 0)
(395.746211880756 48.9791645299142 0)
(402.707440056962 45.3501438455205 0)
(408.732316868204 43.2468384394654 0)
(415.03259919134 40.0523185755906 0)
(418.637797616042 34.4407347609839 0)
(423.162215569287 31.4502420997309 0)
(425.481634540349 26.8882729161172 0)
(427.505013184419 21.6663358882837 0)
(428.819511398276 11.9765365951881 0)
(-9.02372525426334 -68.520729857555 0)
(-2.0350318977341 -43.3336630186536 0)
(28.8791032903433 -15.0940257491399 0)
(76.1341811855449 4.84687132487165 0)
(126.082005725972 27.2016820000459 0)
(176.131667694819 43.2290008084967 0)
(222.906050632426 49.9357410060699 0)
(265.167497717559 54.8489947990785 0)
(300.157881584371 57.0499326442574 0)
(327.852935087661 58.3205947017071 0)
(349.581388241305 56.0132376007857 0)
(366.854257673523 54.8400249498843 0)
(380.627326370518 52.1150450234086 0)
(390.071971298202 46.7675244521447 0)
(397.569424554292 43.2307024500664 0)
(403.126564335625 38.3547970407867 0)
(406.276101331136 31.3534208448215 0)
(409.860501022214 24.8486440498354 0)
(411.436773383348 19.0356382956869 0)
(411.494431428383 13.0160488178734 0)
(411.301201690573 5.82063505364485 0)
(410.074000734333 -0.787927184988571 0)
(408.098363376234 -6.81954902522818 0)
(404.693909182092 -13.4860408627525 0)
(399.89599226358 -19.6113369185057 0)
(393.984817039025 -26.5486162276976 0)
(386.604449208887 -30.6163904626129 0)
(378.554213625259 -34.6294285120786 0)
(370.017813469795 -37.3546375402879 0)
(360.576961013724 -39.6190281112183 0)
(350.459586656633 -40.5255565831294 0)
(339.284131541842 -41.3741445516091 0)
(327.517797733174 -41.2574523078689 0)
(315.315948696062 -42.2238245058805 0)
(303.129685059897 -41.9254920757293 0)
(290.38589747402 -42.4607593433763 0)
(278.018620863655 -40.3956296037568 0)
(265.363470345426 -39.3414960362714 0)
(252.809629864254 -36.1060787425353 0)
(239.171071470896 -33.3907396848988 0)
(220.063835070122 -24.8846698902431 0)
(210.649376582445 -6.53866959363996 0)
(212.751488928566 12.7419669760553 0)
(225.383837832399 27.1164715912352 0)
(241.004992832292 37.6485813995908 0)
(257.767363194843 42.7838900540311 0)
(273.458512654154 46.0298723589857 0)
(288.161894513028 46.7949299135669 0)
(301.442015884845 46.4101661210762 0)