/*--------------------------------*- C++ -*----------------------------------*\
  =========                 |
  \\      /  F ield         | OpenFOAM: The Open Source CFD Toolbox
   \\    /   O peration     | Website:  https://openfoam.org
    \\  /    A nd           | Version:  dev
     \\/     M anipulation  |
\*---------------------------------------------------------------------------*/
FoamFile
{
    version     2.0;
    format      ascii;
    class       volScalarField;
    object      p;
}
// * * * * * * * * * * * * * * * * * * * * * * * * * * * * * * * * * * * * * //

dimensions      [1 -1 -2 0 0 0 0];

internalField   nonuniform List<scalar>
32385
(
712.138266350232
808.562545389019
824.650592078926
826.888801039072
826.337948523676
824.581635219359
823.590276244624
822.692900760277
821.89861518474
821.339208076265
820.903431807537
820.259038848452
819.757598026385
819.114972978257
818.173312217765
817.286334495069
816.42942999108
815.504766310905
814.533585427982
813.586001374044
812.677091090618
811.985306182395
811.167695162139
810.510446471479
809.955906316464
809.352399614935
808.701638316942
808.239766899255
808.042575561865
807.939269261706
807.72904656747
807.475251810999
807.227196132944
806.939150720552
806.509396686264
806.001966101713
805.393232166262
804.747834885255
804.063308582838
803.400368360706
802.805170411127
802.325710553684
801.899477481253
801.555868142782
801.248311598006
800.961524342539
800.705684518006
800.407712134476
800.075752837532
799.753233237398
799.525377965981
799.415176248522
799.294247615917
798.980915407462
798.414519145102
797.936942513642
797.688895827656
797.604469549967
797.56696679045
797.520716041179
797.391107094536
797.220883962635
797.225416313382
797.791273255916
798.940659318062
800.268385335029
801.009697256702
800.904406707119
800.524100498829
800.621068251771
801.328328640033
802.021544363191
801.72090396713
800.411274299249
798.945392066475
798.524717395686
799.97838019906
803.927977540209
814.389582544621
867.66173085263
1033.49438657253
1258.58215886835
1430.68236733301
1534.84952802646
1589.98994613224
1626.00167488799
1660.02466730723
1683.94418848366
1696.31240226412
1708.66090867603
1724.41792679618
1738.28516309667
1748.57391211544
1757.74132151675
1766.47752690164
1774.0582785681
1778.71270758901
1781.12714173613
1783.96325539778
1787.44720274962
1790.09779803665
1792.44358656932
1798.22639961574
1807.96592470772
1817.91782571702
1823.01304945985
1822.72743223968
1821.70410994856
1824.04609198869
1829.34728625801
1835.99875617978
1842.56282826638
1846.93569371108
1845.98074206263
1840.48550938322
1831.40859740012
1822.79341925823
1818.29327219021
1826.71235325416
1822.50918539996
1827.24566569965
1835.44908981603
1844.28321666119
1849.78385928244
1850.97972673565
1847.67976779744
1834.21304080714
1809.71537149686
1802.45081508407
1818.08156168164
1879.32059896577
1971.56877182894
2084.81385450612
2221.27999505811
2390.12444729694
2577.2756490384
2791.3926134854
3013.59808669066
3279.17588085584
3537.98557454611
3808.76817650304
4122.9327320285
4355.06547207012
4642.30550454785
4914.64043374913
5233.16215266151
5353.93391048667
5648.39200358508
6078.12155842289
6344.12333922724
6643.20300865033
6803.38657660271
6437.75759451016
5870.47628140697
5041.19889031467
4186.95202473169
3486.65833616342
2988.98860705278
2661.62623572839
2390.20533093653
2136.17525676998
2094.1104546774
2168.13725163991
2294.84171119741
2426.37909569969
2475.25648285104
2462.09741090211
2411.10222389552
2328.45846923486
2246.6919285589
2183.98644039458
2146.84787633311
2153.98448108412
2185.56736551229
2237.36007775315
2312.18012050881
2408.80656590131
2531.37210245901
2686.1606240374
2838.07096384075
2957.80049419586
3041.17251319004
3096.0633477217
3114.62710507065
3139.69414225017
3203.41750441392
3308.62565027366
3461.89038819395
3592.96965628071
3666.44144339312
3691.45388417605
3669.38298665927
3616.73046274993
3535.37363945483
3437.04204309924
3338.52120065287
3243.5936271566
3151.10202957276
3062.94901224313
2982.00334593047
2910.16279920361
2851.20651561679
2799.32065105533
2759.37296476135
2733.22208590854
2710.91446409792
2696.11563213726
2696.19129949495
2706.98281868534
2718.07758786153
2730.22371022769
2752.04591229623
2785.28200908528
2823.99341143874
2865.5539497899
2906.80105976822
2953.90094741898
3001.11310075172
3043.86566434982
3081.08289006278
3111.85961878372
3133.6520887493
3143.29324239273
3143.12037323169
3118.85200801958
3079.51051097743
2976.58961738752
2979.69841605979
399.199568565642
237.482464749908
231.594268250773
176.030008900692
147.781858812297
145.30673709157
134.417970366542
119.400721707196
111.759074197923
107.111119858729
101.530103306157
95.7112933110442
90.5241524489761
85.8987690245712
81.8607044895337
78.5957300997833
76.0223765219381
73.8833000999803
72.0303318735863
70.4001760907682
68.8925736738604
67.4986604665629
66.6769453183531
66.3084105545908
68.0135456160879
72.3693904131219
73.3810746277694
714.170006712789
808.89376144635
824.994510374821
827.17138998834
826.581511564032
824.805805985148
823.80663742494
822.910134112496
822.121782035008
821.571996195715
821.148478176889
820.518193797349
820.031858903632
819.405273295096
818.480267252022
817.610037279325
816.770288179835
815.863129917158
814.909561871829
813.979705304166
813.088711877606
812.414861262793
811.615490169826
810.976380375072
810.440171378705
809.855302826016
809.223575770773
808.781101008325
808.603260283647
808.519059396541
808.327832485311
808.092911422005
807.863462176955
807.593795431999
807.182298290033
806.692961825646
806.102257147809
805.474906970006
804.808537627444
804.163827098927
803.586803084198
803.125570004682
802.717744330604
802.392429493607
802.103082230581
801.834533475111
801.59680056877
801.316751392371
801.002999675649
800.699013921474
800.489290292758
800.396320351131
800.29324923339
800.000116906599
799.454785553121
798.996715395515
798.765923497787
798.697924995616
798.677429335695
798.649995174055
798.543064589589
798.400358244748
798.434717678783
799.026472139494
800.192753682445
801.532058021235
802.291089371095
802.215314268157
801.867792759789
801.986713372955
802.698590955043
803.388000220121
803.099788589515
801.823014246501
800.39762000337
800.017053396774
801.487069309278
805.442709629901
815.928333082
869.513577142838
1035.88975210306
1260.87220670308
1432.11972567693
1535.7135452581
1590.64622420263
1626.49273914194
1660.32609808504
1684.21447644642
1696.61389543105
1708.93730124222
1724.67188116907
1738.56095600151
1748.87832023804
1758.05666986859
1766.80325906715
1774.40488444105
1779.08785907897
1781.52264565191
1784.36972266609
1787.86898160873
1790.56378914457
1792.95140585917
1798.74938160211
1808.48000068189
1818.41575904355
1823.54224645646
1823.35863002888
1822.41883721762
1824.82544562566
1830.17863031845
1836.8723228552
1843.46627270921
1847.88443871658
1846.85723389127
1841.32825646209
1832.19773836525
1823.46670460656
1818.80650448781
1827.27174103789
1822.78415656814
1827.55079395829
1835.66956812123
1844.50635437985
1850.05101857841
1851.38667340685
1848.42102121025
1835.62145791382
1812.10954870112
1805.8684821822
1822.39379951805
1884.55887853428
1977.80471381481
2092.2313383318
2230.17602449606
2400.89925638684
2590.29686388665
2807.00447412288
3032.03701960719
3301.38337907227
3563.37367099102
3837.55394236217
4159.2133126093
4395.22385853756
4683.84938225637
4955.5045962431
5269.8574485187
5384.84059794311
5681.46043985449
6124.75036230407
6410.04393259542
6740.65572015862
6902.72721023375
6525.08512920033
5943.58742851604
5095.52560499406
4225.66979129733
3514.5109434241
3010.08063410324
2678.4781415008
2403.68924334958
2147.53761299623
2104.74921240045
2179.56637804785
2307.30363304793
2439.78117499227
2488.90493561738
2475.51820738688
2423.82432077428
2340.28814388655
2257.70809959907
2194.42600852413
2156.91440057763
2164.0732930805
2195.86805329732
2248.0226133192
2323.40820250365
2420.78640833606
2544.34070945735
2700.37205248249
2853.53268414615
2974.53435001567
3059.01484970627
3114.57074817225
3133.28350336102
3158.4841463059
3222.6239003258
3328.55708568307
3483.08260138103
3615.3548245388
3689.82543643263
3715.35339499121
3693.00295136121
3639.74846214272
3557.45837695604
3457.97288335129
3358.34729439156
3262.36996704199
3168.87273468785
3079.76032302475
2997.92585783734
2925.28921755299
2865.64023696186
2813.16452095348
2772.75980337108
2746.21079800324
2723.59733276055
2708.53076987056
2708.45314472576
2719.14406322776
2730.17438625448
2742.32391857379
2764.19857602175
2797.53113116417
2836.35417247456
2878.04501304897
2919.4384967721
2966.74638424379
3014.16434857694
3057.10504547054
3094.46866514019
3125.30713859962
3147.03140589622
3156.43314405744
3155.82445338948
3130.74268754966
3090.3507461104
2985.93525862383
2982.65954600252
400.055101515323
237.605744082508
231.63937845649
176.342756633442
147.87287579979
145.322128445929
134.495787219619
119.485258321094
111.799939004728
107.139364574496
101.564535587715
95.7459220957984
90.5544844306827
85.9259730515909
81.884955152025
78.6160439093668
76.0394951347746
73.8985808116815
72.0442691601563
70.4129262559693
68.9050198036017
67.5107475678637
66.6884996746373
66.3227386008186
68.016917051894
72.3697994536686
73.3808921858961
715.340109988334
808.842519427554
825.014053344044
827.182562204885
826.589901835762
824.819263166846
823.82758188313
822.941919998114
822.165093555329
821.627024762193
821.21531624525
820.596618905574
820.12077466476
819.504342255245
818.588859018487
817.726834504908
816.894695514736
815.994713854677
815.047670403138
814.123738920943
813.238041679146
812.568871799503
811.774252897082
811.138967509023
810.606362111098
810.025323609959
809.397428763558
808.958167920021
808.782725557077
808.700621834831
808.511612073658
808.278314954619
808.049854144639
807.781065112694
807.370512885275
806.881808770633
806.291611344384
805.664634287227
804.998655250314
804.354101597202
803.776662553759
803.314693231399
802.90623611719
802.579664601728
802.28875839297
802.018562203509
801.77874742289
801.496584073977
801.181294366557
800.875824786535
800.662989800244
800.565173192334
800.459217761459
800.168168079337
799.625222728431
799.165025577006
798.927103378943
798.851062768539
798.824880406691
798.795896804766
798.694361215779
798.563868260599
798.608603267783
799.19489379135
800.33800925689
801.648558126522
802.400567833102
802.343171706411
802.013146691742
802.121730082147
802.790338501396
803.438605202403
803.146922303021
801.90525880918
800.525035272131
800.159529923362
801.594065732826
805.479436687047
815.907717637698
869.64701205861
1036.29536882719
1260.99504842659
1432.1031314985
1535.57955105844
1590.74647984837
1626.65161120645
1660.28084028232
1684.16960085273
1696.66903102317
1708.96243342697
1724.64258383028
1738.55077384288
1748.89889080895
1758.07301965936
1766.80952931692
1774.41562603213
1779.11945204591
1781.56720852575
1784.40439206612
1787.89400801864
1790.62436153481
1793.05500154357
1798.83410720137
1808.4562020002
1818.27088477609
1823.35441106973
1823.25874758528
1822.43790293298
1824.86984053342
1830.19563905865
1836.8468364342
1843.41079993679
1847.81791790388
1846.75117748087
1841.26092266075
1832.23588351887
1823.49148051572
1818.73430885093
1827.17861921087
1822.68072846902
1827.51555708526
1835.81660953159
1844.54544283429
1850.12507795702
1851.39378816831
1848.33667590435
1835.44911709799
1811.90733345946
1805.5339050166
1822.02540944681
1883.97234198412
1976.98902062179
2091.13747261983
2228.67556899312
2398.74898002141
2587.22865423426
2802.83191164957
3026.99636684046
3294.17997024292
3555.12954358163
3829.77436226332
4147.40599394766
4382.77069391995
4671.19783068986
4943.86011145261
5259.5474352713
5377.10241588392
5671.24424507956
6107.36298059899
6382.12035839418
6689.6480270811
6835.07650068959
6464.06170900762
5892.46942529945
5058.04274981835
4200.74022251801
3498.53918632411
2999.48623930179
2670.73468662019
2397.7270773857
2143.65518149333
2101.51963161222
2176.33544236016
2303.56151746794
2435.20414144719
2483.84390986594
2470.53128245541
2419.03085340842
2335.89219962254
2253.76380629362
2190.92584650676
2153.79228850383
2161.08412918639
2192.82597258459
2244.86829339715
2320.13428418617
2417.38807558719
2540.69110385241
2696.15854224848
2848.50725274506
2968.66820034142
3052.3259284569
3107.20520802025
3125.95935124272
3151.33094348017
3215.74019719749
3321.59690711375
3475.44217515945
3606.64685966285
3680.2332285134
3705.29392032356
3682.89836093131
3629.84811162712
3547.99126115094
3449.07013741855
3350.03355912675
3254.59723905398
3161.63156722661
3073.04730187027
2991.73469409718
2919.57429102713
2860.28163611833
2808.17399950455
2768.04725855234
2741.65205949974
2719.30693724106
2704.4508296998
2704.4675047721
2715.15248730442
2726.26798432684
2738.57315761982
2760.48591266874
2793.75334793497
2832.50196933045
2874.15038520043
2915.55316515944
2962.81235103482
3010.13499223896
3052.99194188608
3090.29349877619
3121.10191512322
3142.85810033192
3152.40017304923
3151.96529379018
3127.23724294023
3087.26826237926
2983.45722875824
2976.94367829015
401.806225169194
237.801917884965
231.643942968056
176.836095759713
147.997852049855
145.309802252275
134.603441856828
119.614795998044
111.851800809315
107.170876202146
101.610952290812
95.7957803406232
90.5983338943293
85.9654391033378
81.9199162161654
78.6442881550651
76.0622452692314
73.9183453973208
72.0619276937161
70.4287608043676
68.9207796388616
67.5262285539689
66.7030566062531
66.3416490333923
68.0152106315838
72.3625111477422
73.3753284198197
715.136461107957
808.494307261685
824.80559965305
827.007549581634
826.440327690391
824.692406404449
823.718418068235
822.849618670364
822.087202989103
821.561464339562
821.160720669849
820.551703801274
820.083469979095
819.473904566188
818.564265755733
817.706308323072
816.877439012284
815.980212435715
815.035195950418
814.112647824093
813.227561654671
812.558409694257
811.764046760549
811.127970579181
810.594453202794
810.012983407998
809.384771171045
808.944202860298
808.766718397235
808.682343035772
808.491753706252
808.2562286571
808.02498961734
807.753658186297
807.340959638212
806.84993977822
806.25743990237
805.628158128755
804.960024576148
804.31311814519
803.732665438589
803.267353491212
802.85594158642
802.525749029669
802.230958154667
801.95704480357
801.71300199234
801.426888532827
801.108585613911
800.800602271541
800.582570947952
800.477388445779
800.367511021623
800.079906999497
799.540472237389
799.076307184268
798.827755401077
798.740414932508
798.707252512898
798.677848591095
798.586084237435
798.474268735668
798.533426997509
799.110768331713
800.217926794367
801.488691673887
802.235203425981
802.209020367532
801.904803091126
801.997396474398
802.608380749373
803.199011485072
802.911307744847
801.731166205966
800.414793502011
800.070212202249
801.457219083533
805.235684738251
815.584411029279
869.46507757968
1036.52544490349
1261.26568252226
1432.74917980361
1535.31252165672
1590.90227945035
1626.9241419411
1660.22987318853
1684.113149001
1696.77371011687
1709.02294237453
1724.61649477037
1738.55675728365
1748.95728294455
1758.12789580659
1766.8514508654
1774.4658307648
1779.20797469265
1781.68233149469
1784.50663416901
1787.98302998752
1790.77702782998
1793.27894966509
1799.03302364533
1808.50288088098
1818.12795371826
1823.14976667413
1823.19697929821
1822.5712453492
1825.06700127788
1830.35795242987
1836.95907691635
1843.4924436105
1847.82372102877
1846.72424729432
1841.30265943138
1832.45466792035
1823.68670255451
1818.79431676909
1827.26529490173
1822.61886366527
1827.58139057119
1835.85436025286
1844.66603109211
1850.2679576266
1851.52291727908
1848.4037849313
1835.49391712695
1812.02094582083
1805.61374829181
1822.15623104636
1883.96243281432
1976.98258670339
2091.04004692992
2228.4130169245
2398.20825503874
2586.24833822068
2801.20341261577
3024.36682267706
3291.43775447478
3550.22222719591
3821.76400961535
4140.85752052232
4374.56974260345
4663.02190097324
4936.04094370898
5251.94931120338
5372.23824756051
5665.78427204356
6101.4819872873
6364.38002118453
6676.69413345651
6816.74623895911
6445.20604649492
5874.63433320144
5042.98426266839
4189.50333515061
3490.95133339344
2994.367333827
2666.87392351965
2394.39550725404
2141.51651720315
2100.07881203265
2175.1157364947
2302.17550279524
2433.31692460422
2481.44788844788
2468.10058965823
2416.53906087221
2333.50253490337
2251.5842298398
2189.03985842222
2152.21919969279
2159.69795199955
2191.43408141052
2243.46669422389
2318.80157337087
2416.20768266849
2539.60513673755
2694.97563708137
2846.95291630001
2966.70054967633
3049.85715255305
3104.21052847284
3123.07316866893
3148.70856568517
3213.61815355668
3319.80042118474
3473.48330661565
3604.10870402494
3677.12082231847
3701.81899927606
3679.25439397482
3626.16437133881
3544.35001170468
3445.55200713276
3346.68829014538
3251.4083105234
3158.60238719588
3070.1920220896
2989.08338168153
2917.11886646302
2857.94028825829
2806.01164107661
2766.00372264378
2739.62436101895
2717.45830758401
2702.73872341927
2702.78556553462
2713.4280847713
2724.632530378
2737.12242740584
2759.08906827728
2792.31092961937
2831.01626922289
2872.67103646099
2914.14477613065
2961.42688923452
3008.70764399049
3051.52187128707
3088.77945791387
3119.54112000271
3141.2673743254
3150.81836325675
3150.38481009812
3125.6563817847
3085.72308385515
2982.01575029728
2971.95084397515
404.378448992156
238.08613685476
231.590563009089
177.441929456176
148.157451299951
145.272705658425
134.720491579371
119.776084205382
111.911890481524
107.201966202221
101.662720357319
95.8546487598821
90.6504244035578
86.0123918298432
81.9616728336188
78.6776022740693
76.0884038779857
73.9407264720316
72.0817116196595
70.4462304433382
68.9382452721998
67.5433544936115
66.7186917135341
66.3626240433137
68.0090367655595
72.3497305518896
73.3666756411943
714.342779229405
807.954167152505
824.473767439257
826.736040786595
826.212325865625
824.498225188413
823.548484959101
822.7007419459
821.955224933097
821.443212544977
821.054259487321
820.455372005866
819.994881951643
819.392318816297
818.4886100906
817.63470100162
816.809134770082
815.914785195773
814.971974352195
814.051069447112
813.166821960294
812.498049195629
811.704416974771
811.068005964521
810.534179152651
809.953015500272
809.325447079106
808.88412777324
808.705495810388
808.619416089105
808.428392001027
808.191691240451
807.958676689479
807.685995338823
807.272538293941
806.780609986729
806.187217018161
805.557142076713
804.888348778332
804.240533898096
803.658550878606
803.191273415636
802.778130039003
802.445805964773
802.148486499992
801.872286446998
801.625358253611
801.336819462318
801.017381582261
800.708699340087
800.48654370472
800.374433171713
800.262793959129
799.982523619907
799.450612654097
798.983087623222
798.722705139079
798.623512247254
798.583973446456
798.55762476431
798.482097820788
798.398275569195
798.479460362308
799.04746488095
800.108062219818
801.331730566697
802.073625239484
802.092275486973
801.826476594405
801.900058048449
802.436207587159
802.953727681497
802.67509431768
801.586451958188
800.353736373847
800.040341924731
801.366909974162
805.002131493861
815.24684060242
869.23678873333
1036.76346220716
1261.57955651691
1432.04998084908
1534.98191928848
1591.09086425854
1627.26445143706
1660.13349325938
1683.99751975196
1696.88412921406
1709.07525954966
1724.54231727051
1738.52215099653
1748.99434626603
1758.15854975887
1766.86134476705
1774.48269248183
1779.27147831075
1781.78273436784
1784.5856389597
1788.04024551178
1790.91625205633
1793.5260573024
1799.23962823733
1808.4869900405
1817.82796579511
1822.74463002766
1822.98360360031
1822.62921006878
1825.21518234686
1830.45455883309
1836.96955632324
1843.45139817983
1847.71559681997
1846.54180263062
1841.20052029469
1832.58887953693
1823.79804995559
1818.71664155728
1827.09946036709
1822.42701483135
1827.55644904874
1835.95961427945
1844.7212546434
1850.42196536275
1851.58175979398
1848.29903874183
1835.29061877381
1811.87386860845
1805.4547278308
1822.11095186032
1883.85714764194
1976.91029285696
2090.92251536344
2228.1980493817
2397.82188321622
2585.22626731695
2799.75204543006
3023.4993411141
3286.80618397656
3545.95551210578
3820.66519972455
4137.38411415395
4370.87878399704
4659.34374865511
4932.80633284959
5248.86376370702
5372.46533291092
5663.82599787479
6093.42217657895
6358.86582542927
6661.09431367211
6795.89228301951
6426.2750728636
5857.4226506422
5028.89306542983
4178.86043526194
3483.89477893184
2989.7495962147
2663.51654615454
2391.43212880104
2139.59575901257
2099.05107179079
2174.28298352545
2301.16626590293
2431.73613789088
2479.25590253671
2465.85420735185
2414.19702759814
2331.24758567666
2249.54062934675
2187.30511909544
2150.82835318573
2158.52717083817
2190.22090699606
2242.20576256434
2317.58636926099
2415.11004586297
2538.53737587376
2693.73479259805
2845.25024715192
2964.55981038168
3047.20738695285
3100.98434475133
3119.9597028372
3145.82532484243
3211.15968390606
3317.54140819248
3470.88236175783
3600.85359585322
3673.30493695641
3697.66662512599
3675.02863035494
3621.99241497227
3540.28517459947
3441.69419867897
3343.06651206716
3248.00384023268
3155.39949055604
3067.18706895295
2986.30106038588
2914.5417451943
2855.47323856106
2803.73759094409
2763.83893437012
2737.4480116695
2715.46178891015
2700.86914261833
2700.90278758763
2711.46070451723
2722.75559952688
2735.44352086508
2757.43504947852
2790.55806610959
2829.16823114386
2870.79196409485
2912.32033991472
2959.60112380343
3006.81591017678
3049.57998164183
3086.79431107792
3117.52222319051
3139.24449633844
3148.84449185529
3148.45436130184
3123.79161936776
3083.90853800009
2980.49238099349
2967.20848841964
407.779795117539
238.475998195283
231.463533289887
178.152984065413
148.363083282702
145.212195139175
134.83987063428
119.970078603323
111.982905649119
107.232502257757
101.718511443086
95.9218779552721
90.7103449279704
86.0663986219116
82.0101167169788
78.7161880810531
76.1182260490588
73.9660112805513
72.1039639768325
70.4656321253446
68.9575382604781
67.5621264650687
66.7351857986606
66.3853511320513
67.9994435034863
72.3327038801648
73.3562602544164
713.358807904125
807.285368680267
824.075256596706
826.416305873087
825.948113423038
824.27497717531
823.353770306045
822.530040740173
821.803405748023
821.30655867107
820.930615908654
820.342924290114
819.891107258717
819.296535191573
818.399720239937
817.550732777227
816.729375783701
815.838847281487
814.899180811396
813.98087852182
813.098332089954
812.430873578263
811.638936704017
811.003020839718
810.469877436472
809.889959663703
809.264290064294
808.823066526483
808.643994060817
808.556795459444
808.366340075847
808.129603856775
807.895365399526
807.622110002738
807.209058525889
806.717158766274
806.123757341162
805.493954701488
804.825454593246
804.177621603362
803.594772529953
803.126166431591
802.712023679424
802.378256200602
802.078933462101
801.800940595117
801.552164559402
801.261461843441
800.94173720451
800.633483558617
800.407370958374
800.287740249798
800.175143979214
799.905405272959
799.384093161295
798.913350866183
798.638933413937
798.525526541357
798.479324997236
798.45840424788
798.405405250434
798.358727443577
798.468119490957
799.024353619084
800.030007395316
801.193226279728
801.930742709086
802.008189184774
801.791795725252
801.841617306147
802.284295714922
802.712687854752
802.447759263391
801.473427340367
800.354356331604
800.076641457615
801.326692124126
804.781827300132
814.893543517588
868.93625097114
1036.97013041451
1261.98431217019
1431.65369319644
1534.37185065455
1591.29110738352
1627.72808079258
1660.01790495423
1683.84230185138
1697.02561567368
1709.14560041637
1724.44408227584
1738.47165066228
1749.0392048464
1758.19864544902
1766.87364812752
1774.50700110322
1779.35675667084
1781.91168588758
1784.69165704242
1788.11838424715
1791.10064562879
1793.85962965331
1799.526064294
1808.47693475237
1817.44323285612
1822.21626457432
1822.70404470757
1822.70880044527
1825.42637543923
1830.60416103238
1837.01763822505
1843.43479071608
1847.60517758587
1846.33387492693
1841.09354017455
1832.78297891371
1823.97295672346
1818.6873571728
1826.91682865265
1822.20321500662
1827.53722793204
1836.06493681652
1844.83419936763
1850.61439679319
1851.68543173541
1848.20000125692
1835.08489141088
1811.75770153927
1805.3653990762
1822.20978930632
1883.99692772021
1977.15786629137
2091.19611510585
2228.5592508658
2397.85455483367
2585.45030990786
2799.49576545912
3021.00616372282
3287.89628756655
3545.82684936298
3818.96917113904
4136.0737376864
4368.97311432659
4657.5917918126
4931.3275946575
5246.25237224571
5368.14409493451
5659.32655733332
6093.46313437296
6351.79257639442
6654.60537793045
6784.61690418908
6415.15500960556
5845.84247734347
5018.52673134347
4170.05764085729
3478.02216533169
2986.09863202923
2660.99305707649
2389.03189089579
2138.05277455408
2098.67383075685
2174.17736804822
2301.02150519888
2431.07156426692
2477.86852516897
2464.3482290024
2412.49183840728
2329.53677343791
2247.98210491479
2186.0426356444
2149.94572279795
2157.92692641702
2189.57930639772
2241.53490235005
2317.02529755279
2414.75882367681
2538.35574958729
2693.49025173079
2844.67574052921
2963.63950072663
3045.79335847767
3098.94052505129
3117.98013543504
3144.26397953855
3210.03377943657
3316.82230039957
3469.97190901092
3599.41328165042
3671.31300550104
3695.27831793992
3672.52642827256
3619.44016247295
3537.73298247979
3439.22921594631
3340.73517004268
3245.79988215204
3153.30471196949
3065.20128372739
2984.46714313639
2912.85164156897
2853.83425568257
2802.26042147839
2762.43133644316
2735.97552152297
2714.16403576129
2699.68763692586
2699.67945104081
2710.13025912631
2721.53686883112
2734.457949208
2756.47901468397
2789.49272407584
2828.00177782857
2869.60497288698
2911.21920210097
2958.52146926682
3005.68568448698
3048.41444893394
3085.5894654154
3116.27886333956
3137.98166981587
3147.60107214239
3147.20110940285
3122.51575698007
3082.5293452021
2979.38643046196
2962.53087217703
412.220952861481
238.992928334519
231.245107610401
178.978202821695
148.626152297796
145.125687494796
134.958209163407
120.201072193789
112.067629859828
107.262273901745
101.778056011039
95.9981262625
90.7788729262509
86.128133334804
82.0660438551144
78.76082479184
76.152315962976
73.9947097614314
72.129166270134
70.4873484382771
68.9789185625575
67.5827677001665
66.7525998580353
66.4100517754424
67.9871813920975
72.3116849200708
73.3445909088539
712.233346423042
806.51425756823
823.630846670679
826.065785000351
825.662457606354
824.035562762429
823.146007361227
822.348506982506
821.642257242228
821.161699614429
820.799746831898
820.224103701742
819.78167258719
819.195835430491
818.306591831791
817.463068250315
816.646456919202
815.760278080518
814.824240741395
813.908986452234
813.02851831241
812.362676404949
811.572903066604
810.937622742496
810.405549341984
809.827139615611
809.203957235259
808.764000280657
808.582629152715
808.495392413649
808.305680159464
808.068969606474
807.833628602199
807.559852067701
807.14758732231
806.656133965892
806.062917178444
805.433822225157
804.765937729312
804.118377679004
803.53463247858
803.065002355971
802.650079538409
802.314469238607
802.013206935357
801.733524476156
801.48268086277
801.189898124106
800.870328032225
800.56297508602
800.332483730519
800.204320017297
800.091141952671
799.834812522288
799.326888124048
798.852588204697
798.561288811349
798.430799844329
798.377139635489
798.363820315486
798.33947558645
798.338818809746
798.482876160222
799.025169101254
799.963730827836
801.054665522762
801.787908591661
801.936537014397
801.779761253128
801.800426037282
802.13088107749
802.454697456585
802.207730502789
801.370183976042
800.393652307034
800.155981992169
801.313442896078
804.552039789013
814.496379455613
868.515084825572
1037.0785853733
1262.4258593141
1431.34859919315
1534.67909795988
1591.61487629279
1628.27394716029
1659.86984288126
1683.65117078094
1697.18644669704
1709.22841181577
1724.31352566233
1738.39194174226
1749.07843723873
1758.23703896455
1766.87868441836
1774.52200298477
1779.44774964513
1782.05663807946
1784.80875603692
1788.20140071474
1791.31304379451
1794.26235054405
1799.87364710612
1808.44728315564
1816.93421003364
1821.52031217031
1822.31501705199
1822.76705907224
1825.65903798848
1830.76654368767
1837.05408992577
1843.38542407329
1847.43784607749
1845.99859222795
1840.90401540568
1832.97847060226
1824.14560653762
1818.64033285664
1826.54277431501
1821.89788743754
1827.47012663068
1836.20725755852
1844.96744026759
1850.83394919804
1851.77131740342
1848.01662647481
1834.77160634318
1811.55598382311
1805.22246264077
1822.32716428543
1884.27940301055
1977.52876672057
2091.69791850438
2229.16283632077
2398.60046502102
2584.49237775191
2798.17157828939
3023.26549695016
3287.41633635126
3544.77734388283
3819.04611906042
4135.91508211621
4368.41510509768
4657.29239640131
4931.41066032325
5245.36718475683
5368.46180452983
5657.62231094783
6091.2663661301
6348.29561637233
6648.52544862493
6773.13186461315
6404.08026539319
5834.10526091231
5008.12325722752
4160.94859110255
3471.94482648679
2982.45860529112
2658.63368192202
2386.70193558712
2136.54658984073
2098.63818525418
2174.50428503233
2301.3287145044
2430.8657294099
2476.79720970563
2463.1048891696
2410.97963980789
2327.97418788664
2246.5578811362
2184.93325641018
2149.27745289145
2157.60458811295
2189.19907605193
2241.12548873819
2316.75945863911
2414.74620713416
2538.57828118547
2693.65294308127
2844.5578251699
2963.16809931177
3044.76279574324
3097.17238885157
3116.27458008565
3143.04326696314
3209.26728695309
3316.54229033577
3469.50848828562
3598.43429140053
3669.71564774761
3693.21499242256
3670.36422993257
3617.19015433905
3535.47306675967
3437.04688288538
3338.68009917461
3243.87045056173
3151.47085830196
3063.45857779185
2982.86931521161
2911.39092760878
2852.41236404134
2801.00874139483
2761.23527033168
2734.68554369636