/*--------------------------------*- C++ -*----------------------------------*\
  =========                 |
  \\      /  F ield         | OpenFOAM: The Open Source CFD Toolbox
   \\    /   O peration     | Website:  https://openfoam.org
    \\  /    A nd           | Version:  dev
     \\/     M anipulation  |
\*---------------------------------------------------------------------------*/
FoamFile
{
    format      ascii;
    class       volScalarField;
    object      T;
}
// * * * * * * * * * * * * * * * * * * * * * * * * * * * * * * * * * * * * * //

dimensions      [0 0 0 1 0 0 0];

internalField   nonuniform List<scalar>
32385
(
1404.43491535448
1147.81195002889
981.086534220602
876.555180268065
806.157285562579
756.054012665781
718.015960549465
687.715473979171
662.825511943139
641.774508835283
623.673467411831
607.860142267765
593.901008557001
581.534304089136
570.460779866324
560.502907801398
551.513387394181
543.355825488735
535.927197221699
529.125027448205
522.871465558504
517.132616066993
511.813939786581
506.888470193852
502.321850744084
498.048363607026
494.024958588295
490.252220676525
486.728032174233
483.416421365076
480.268495794793
477.269756235135
474.425701978325
471.724158745381
469.142080812473
466.676649506559
464.322280370456
462.073496209906
459.924276507583
457.868504530079
455.906596096078
454.039185210978
452.257008123632
450.559283333336
448.945318763973
447.407338821877
445.942312639182
444.532955945283
443.169639556939
441.850085077634
440.581975409181
439.374278391791
438.212317867869
437.06421288687
435.908283798705
434.783433636528
433.719478373107
432.708325191443
431.731273370403
430.769317798763
429.801443201996
428.820249027202
427.858223738976
426.99716029824
426.29637869476
425.733718854934
425.195888559194
424.577009008236
423.898439997766
423.259286578535
422.722370661334
422.245020856657
421.68394576357
420.963004041704
420.142937806251
419.383219516553
418.810070610717
418.26730024219
416.465973405851
405.655688722946
377.89154427478
349.646402315197
330.988116068326
319.869599179564
313.128843505557
309.178339115606
307.221522640473
306.236284732769
305.610879429692
305.30040833406
305.2403223665
305.268007452963
305.317389969301
305.40136001302
305.521524023225
305.663820868625
305.781221731104
305.871498314409
305.996364545369
306.178390751841
306.372261486344
306.548834257486
306.790824230362
307.154127018423
307.602917473107
308.007449320201
308.29288184207
308.532227632989
308.855110937934
309.261158157228
309.628595443343
309.803461197529
309.765653073832
309.362380265427
308.523484341385
307.194757256173
305.666310847589
303.911140351218
302.961288955739
302.593402170486
301.987692807009
301.613544853672
301.713510982888
302.304955232803
304.142021977004
308.064776777114
314.266603134961
322.09353975395
330.301601641975
336.994417165499
342.254906265189
346.638187088019
350.576469675111
354.755469451699
359.584200726422
364.555738545933
369.633281761945
374.424307396399
379.64915235708
383.900240369687
386.747293299429
387.260971538081
383.183472409048
378.360708012747
369.836573492498
359.228349931074
349.953327671744
350.43233937768
364.459002773923
391.176421445995
426.699974065399
454.627889120643
461.179222363167
461.626381912479
454.530673858931
442.713605405552
430.419988363121
419.338582114605
411.544582456442
406.433984635798
399.046778818091
391.941989236206
388.948810718556
386.629625240925
386.367727956298
386.820738760063
386.725237227749
386.275956992301
385.709473143087
384.864355461831
383.451464880228
381.350052745998
379.873751176983
378.680625860809
377.387801342072
375.784553514491
373.766501005836
371.787019259362
370.705771355657
371.056899901458
373.02926651988
376.004697107692
378.324739297262
378.185564459477
376.651625920224
373.627959054551
370.689467868719
369.494466481447
370.558899624813
373.062262296411
375.122423951448
376.157055551063
376.98472149543
377.36371296442
377.335638569433
377.181939204178
377.008147205849
376.666852038064
376.014423810618
375.030994249611
373.847819958141
372.733236386004
371.593813735847
370.498058599291
369.504464669563
368.198118383641
366.77163056402
365.517099594515
364.525686226959
363.583552376379
362.531902386477
361.539956097442
360.69179723331
359.862676041843
359.019688474701
358.178053844103
357.566143327417
357.252543995285
357.162383156938
357.231517326004
357.363744035703
357.459289199716
357.415009523089
357.2236491448
356.697664935736
356.272062939448
357.753871722945
371.046659411276
319.064866589246
330.050629589051
348.56377767581
347.320188750559
338.4324525661
343.248155851084
346.990645175166
344.815084335092
343.709377874484
345.348608060198
346.475073288579
346.387708169222
345.900848796488
345.333495068225
344.654082908118
344.131510917144
343.972830284636
344.059597138711
344.276344610468
344.622435968368
345.034014007153
345.170895189452
344.655681309684
343.02534945671
339.317908673016
333.162337598944
325.358642930269
1409.02312507748
1154.83456407362
988.834759980805
884.916141441216
815.085098667737
765.519686018884
728.011370956592
698.224554748727
673.833142588342
653.266790347527
635.636362102739
620.27540048232
606.756436196632
594.815759035836
584.151702928753
574.593577057691
565.994972479895
558.218584796743
551.162646546339
544.726234368379
538.83231164948
533.451997786889
528.483518438141
523.906518472415
519.686307705413
515.753249865958
512.063889480817
508.625109612835
505.437847252757
502.462203220083
499.643467308867
496.968508760997
494.445054555118
492.060073881897
489.787517402684
487.626488723271
485.571106075577
483.617699971116
481.760390056231
479.994707634323
478.322866490498
476.747442758345
475.25752773382
473.853603981816
472.534309128264
471.291388334503
470.122290820651
469.006592950363
467.934399183565
466.904702384338
465.928472117692
465.016537533865
464.149723264432
463.288069795014
462.405633191989
461.555026072748
460.773709674126
460.051426725701
459.364484627781
458.690350621452
458.003558174912
457.297365619025
456.614737955336
456.059316838087
455.698938311492
455.497352097012
455.304534664672
454.993087173012
454.60376029531
454.270791197493
454.069283189315
453.931232485705
453.663684982618
453.180493462871
452.577126570337
452.07543469867
451.849413342114
451.735645099953
450.380273046483
439.736970632075
410.230483747628
376.865123177008
351.897739496844
335.538370544127
325.028265374307
318.734033244403
315.594562175485
314.008088238949
313.032223747616
312.604736166239
312.598827034275
312.737767063262
312.913405848747
313.150422317744
313.450887782082
313.786337055199
314.076590197158
314.325328700454
314.642149339875
315.061487893765
315.50813865593
315.947106650259
316.524888082448
317.321753306506
318.246860730637
319.073694998331
319.706314440277
320.30791402177
321.106955351307
322.088878967614
323.023506938616
323.616897235406
323.807565665129
323.267023434148
321.885899491244
319.581619141133
317.024844905543
314.55982326987
312.012081823829
310.286311086378
308.635642369085
307.678853811666
307.764698688241
308.860306144289
312.421863119997
319.965966216229
331.577260616189
345.668735759319
359.973035414621
371.432958058577
380.805680175922
389.071625565043
396.892883102288
405.452270436957
415.538000202282
426.130924644773
437.243143714664
447.975938775569
459.924176645032
470.029509576366
477.751985501575
481.517847138913
475.905587531458
468.898042047143
454.322307207097
434.742994491529
416.316548072515
418.348871512017
448.747602197039
503.352189586366
572.277585326996
623.008922675959
629.643441076278
623.155235546514
600.686470507901
569.882951918174
540.124917631128
515.260105172108
498.028605694425
485.462281042222
470.089290837098
459.047981458194
456.248190322613
455.058213508608
456.744893683465
458.082832303032
457.560425724054
455.879641052724
453.534549595889
450.768073593465
447.528749806328
443.707645310606
441.626832925796
440.340593476201
439.171159853785
437.815809437716
436.044528042535
434.566598773666
434.717025603884
437.041698382321
441.643010283915
447.462980977649
451.782547896832
451.607384242414
449.285780020327
444.87710923611
441.004533405742
440.342209844081
443.309472805823
448.225334242393
451.862910035487
453.250755124322
453.978009131889
453.651640782496
452.461668387695
451.056079206731
449.648575609453
447.987783625688
445.86513638879
443.288499858658
440.499931785383
437.963816530964
435.474715373759
433.21336794864
431.254030334429
428.844489397517
426.35316155
424.293852658644
422.740334803236
421.258530300329
419.627468159722
418.185326328964
417.05546896234
415.968329507191
414.850209835461
413.702809644348
412.952377161304
412.64318935603
412.609797639207
412.71540848083
412.763031543105
412.535018944567
411.791753499208
410.485175576028
408.094810884944
405.182494058621
403.66828319946
415.102570218912
322.499933382815
333.796561007868
354.424798938405
352.211615100186
342.256695323451
347.514011147659
351.370669216337
348.752936599774
347.447331442938
349.122674270711
350.211875046839
349.994182492964
349.361686279711
348.655705370519
347.848335418876
347.230187634204
347.017175605022
347.07707140902
347.283527384311
347.633802297296
348.057902541468
348.200264001043
347.685541692017
346.023407797042
342.263230856088
335.981148790347
327.731604570982
1414.8571504993
1162.66765251096
997.570745720588
894.375149380845
825.200362945125
776.250041337133
739.342043472155
710.133466915904
686.300152577744
666.273745690549
649.165324423138
634.304141080933
621.269688859226
609.796289403596
599.579881611274
590.457469658165
582.28371449843
574.920420167097
568.26733039037
562.225308679509
556.718282721893
551.722854514392
547.129497609049
542.92504479527
539.074428889347
535.503871748617
532.169575988362
529.085152629488
526.25468604155
523.634094172207
521.162536874617
518.828331759408
516.641525234236
514.588245975515
512.639363226422
510.796049684511
509.052146687721
507.405962621564
505.85180449348
504.386967216274
503.015533864235
501.742122144569
500.554126461478
499.453282438758
498.437490659591
497.498051103265
496.632862394264
495.818248851647
495.044231544217
494.311144886105
493.63308446891
493.022606765226
492.456284248144
491.886345393567
491.282345831503
490.710245626451
490.215010502868
489.784510836207
489.390419393955
489.007009080567
488.604853349644
488.178340135121
487.780257101397
487.533920539523
487.513936902082
487.670494891886
487.820457265516
487.817714761914
487.720458298989
487.693093981055
487.820733294915
488.012322820193
488.032247776625
487.788900658349
487.408702155758
487.169256571324
487.288838667269
487.593398128782
486.702934548279
476.405062010719
445.410565633222
406.824825654231
375.162959507774
353.099382139262
338.472857798202
329.625765508113
325.147568306007
322.861118578136
321.508456752905
320.965752334097
321.015111765942
321.271353155152
321.58647603562
321.993057589614
322.49027312206
323.033177840526
323.51405244247
323.947858638677
324.486834750461
325.171701205499
325.906461613122
326.659043829084
327.624571930669
328.885548419307
330.284514319049
331.527082749025
332.532259415283
333.556734925047
334.902998969357
336.52829549576
338.088188568436
339.143188103409
339.571574082157
338.855851466476
336.866977884693
333.510858389745
329.878385868065
326.550980406103
322.253583717256
319.077494996203
316.219788737018
314.63572324846
314.715072290481
316.393757652975
321.898059888912
333.439202579879
350.913598174429
371.641743805333
392.209395284359
408.465716124134
421.927276591779
434.055450423952
445.757167571338
458.665955460357
473.899372573197
489.948673259703
506.853752979576
523.268163015859
541.497363581296
557.059969984808
569.384367258041
575.90186009247
568.774808064442
559.727863947063
539.651341999025
511.493393090099
484.427197357342
487.850432026392
533.480600321781
613.412091688598
710.289828621562
779.184121978636
784.765172762424
771.469662221753
735.39349639523
688.201262658134
643.359725558895
606.678780333007
581.34153777202
562.182338673947
540.019742618673
525.821541014137
523.628758529299
523.814300313773
527.425208866807
529.548293893558
528.542358400652
525.619520699909
521.53101643324
516.892634778768
511.972366780382
506.625460238559
504.112465531009
502.859969486913
501.921910534962
500.935842436249
499.568639377576
498.737074559045
500.121791649732
504.327241810149
511.334403043373
519.674959271372
525.689310222131
525.405798255004
522.424230930164
516.873475210982
512.334715207428
512.204722931054
516.908657938262
523.940386882951
528.86831999807
530.412595840294
530.879382400809
529.750238704204
527.359632262863
524.702105773442
522.075416607576
519.144466786898
515.646416570332
511.612243102213
507.374159411806
503.551695301571
499.85203705357
496.558197934677
493.734548726599
490.359824240056
486.965319374206
484.219835585407
482.175603473691
480.231353653168
478.129229255202
476.331316713134
474.981263269237
473.686182958236
472.347401358343
470.963163161927
470.118393916618
469.832729108369
469.864164243025
470.003324363062
469.951905677948
469.384620890213
467.938162370504
465.523633720182
461.327584585565
455.955834335197
451.463646554247
460.083532535218
326.823004183783
337.997607122302
360.767665558363
357.612202684888
346.577878339765
352.267031185883
356.240641407248
353.184920428417
351.668103162092
353.373784350859
354.424116002495
354.071511699384
353.282781005871
352.426421050087
351.481183747698
350.759931159292
350.488138358784
350.519802144453
350.716487191682
351.072574749037
351.511568188577
351.662259723456
351.152202328722
349.462455090461
345.658444794923
339.246557540415
330.494932511727
1420.75180552462
1170.95394325417
1006.92681898833
904.550837298968
836.102576407763
787.822932216262
751.562503203975
722.972972905063
699.733489732592
680.278660724149
663.720283651475
649.383570343073
636.855650927964
625.869002081233
616.117370080354
607.445993974536
599.710753475444
592.772644637465
586.533133389689
580.89504051672
575.783377489767
571.180440294433
566.968834256424
563.142806502412
559.666887706111
556.463162720847
553.487590961672
550.760591536218
548.289303218489
546.025432945652
543.902024389105
541.908830784515
540.058177532285
538.335436188505
536.708490550825
535.18062207065
533.745433373612
532.403295299787
531.148748438822
529.980879409494
528.905608917953
527.929606103397
527.038617355926
526.235528237646
525.517473349628
524.87537946677
524.30753088214
523.787064449487
523.304147170641
522.860458696972
522.472793719327
522.155224815116
521.880711726038
521.594435583813
521.261252926515
520.959143895422
520.740106986552
520.590755387857
520.478894020579
520.376191712321
520.250063485889
520.096359981418
519.976103010273
520.028357501231
520.332383847907
520.827123711815
521.302218834823
521.597223970879
521.782739361541
522.04673120357
522.481169242862
522.97693526593
523.267180681175
523.258094821888
523.101111906801
523.118324691799
523.56514790251
524.256247177384
523.834189040557
514.074010592354
482.00446833736
438.401924116181
399.954921126354
371.923622522157
353.007145720138
341.482473177566
335.545202988499
332.489710111329
330.74996032226
330.093219304079
330.194207281992
330.569524084792
331.032414561355
331.617809466
332.319291958653
333.075977429539
333.758914657072
334.397278213083
335.17891845259
336.147840138231
337.196782422558
338.298879289435
339.678250110798
341.40281268573
343.255699904505
344.906403615308
346.310644700276
347.80593733094
349.742085418072
352.044434020599
354.257053818742
355.791461842819
356.453356321083
355.538694347156
352.918813338568
348.477426478365
343.730976838923
339.418295680421
333.342220353155
328.654290665321
324.474128102758
322.22711748904
322.320169774529
324.646480414669
332.262363884945
348.033711228546
371.591219601349
399.056706441399
425.801337305706
446.732677533014
464.120678586202
479.976468303524
495.475815836212
512.617912941091
532.795968849874
554.061725239172
576.43638403082
598.17648720743
622.252855810105
642.762886083424
659.231010785536
668.310640739391
659.724878479618
648.827892870098
623.804479717933
587.495564136351
552.368818115757
557.052341269678
616.734018856801
719.330798503037
840.363852492074
924.323557556917
928.029260109251
907.998154338403
859.467067904436
797.705896335145
739.444544914463
692.339907224405
659.883736340877
634.841751795013
606.903524542614
590.212245408027
588.939325808604
590.703722158205
596.243917846027
599.086951615819
597.575384779727
593.436257011857
587.661094440134
581.213450065325
574.75612152364
568.062165797994
565.267033680652
564.164188848867
563.559813788158
563.063516565494
562.255350059469
562.212768823333
564.847787967524
570.833893458016
580.011964147853
590.543170888134
597.986698548786
597.557198722642
594.055232929905
587.613017973433
582.666988558528
583.069070270716
589.357791221314
598.229079793185
604.202969409557
605.730794463224
605.805342941307
603.780948066707
600.152793606707
596.240730256151
592.402103538766
588.240690336322
583.45107851516
578.082872897234
572.537836703229
567.556393475549
562.781229278173
558.579594482472
554.997181624684
550.799532318461
546.659390909163
543.343188498897
540.884274921296
538.566609873371
536.106479161766
534.046095556883
532.539936549014
531.095271472969
529.601393116687
528.059072856419
527.164574573013
526.924243965543
527.029783100385
527.203571447975
527.043448071436
526.12702100644
523.981115063471
520.47546855296
514.545946234509
506.771378679147
499.363669633478
504.017476883497
332.029914869358
342.481363028595
367.257621038833
363.277950483043
351.221687468256
357.291370201124
361.380709065058
357.927874693179
356.199537747885
357.924745121843
358.937758188045
358.455307147447
357.508815517945
356.498357703073
355.413016667416
354.586747609458
354.254801204545
354.258618349728
354.447065886579
354.81069092044
355.266617859581
355.428887230815
354.928880986453
353.219759765521
349.387690829885
342.853310482944
333.567455177458
1426.67871867589
1179.67671159449
1016.89588482091
915.438741189595
847.786088916274
800.230499599931
764.662018385408
736.72910523307
714.115719010408
695.260495877424
679.276519520818
665.485297401515
653.482262330199
642.998204394897
633.724929929374
625.516416185139
618.229909565041
611.725696329336
605.907178633858
600.67930086335
595.968275721058
591.762267325062
587.93597630115
584.491224338491
581.392119567897
578.556668722327
575.940697285697
573.571433326224
571.458934930574
569.550724788917
567.773812543846
566.119329080443
564.601808364717
563.205980379954
561.896874016417
560.679893366907
559.548442730788
558.505031926028
557.544484933523
556.667690165249
555.882356378301
555.197206595696
554.59640607809
554.083869697369
553.65593775952
553.303246047544
553.024393434701
552.789444071421
552.588958593825
552.425923517013
552.31933116799
552.284559664881
552.291793395834
552.280046253487
552.209044411345
552.167256976286
552.213154112692
552.332947753923
552.491587630079
552.658784903971
552.799652516528
552.911695041778
553.061947504643
553.401070647667
554.010875452723
554.821588993701
555.603174943124
556.185035266254
556.644147506125
557.183796920366
557.900485892051
558.673442385188
559.217224909663
559.439633282551
559.506663620944
559.774734952604
560.528207545785
561.569646756573
561.621976677887
552.59926751213
519.937238161243
471.594115865175
426.23753094057
392.066538695224
368.684915325721
354.338163705823
346.81072399258
342.918560308904
340.777517604631
340.002004271074
340.148515574929
340.643625686595
341.261839464542
342.033886686942
342.945589175573
343.921442876965
344.817957556189
345.679231286963
346.721222968637
347.99167553248
349.379004126213
350.859182868474
352.667635698477
354.848756021282
357.143647019136
359.209112695368
361.04603783969
363.054844240015
365.611286087811
368.611064271989
371.494555130517
373.515404420696
374.40980119067
373.281424902433
370.02070883134
364.456856753102
358.52469347771
353.101752942666
345.261927688453
339.010524262678
333.393385558558
330.461053213735
330.577807834612
333.627199745723
343.537590634991
363.776854986563
393.61430990806
427.879663399253
460.691671235322
486.185535835383
507.342659049476
526.806931237833
546.049298587753
567.341435835964
592.309438689078
618.588617323891
646.174151949826
673.026274969967
702.408180316288
727.577411172925
748.13437391248
759.426701713622
749.47575669792
736.912954885567
707.411827825313
663.280728951584
620.51996748236
626.281927462704
698.708807437537
822.15174144018
963.980450799151
1061.14801919153
1062.67668742923
1035.99626153455
975.776290774175
900.684567858063
830.124443915272
773.495339398526
734.561172788066
704.139905624233
671.170831042469
652.467784056903
652.313377126378
655.830848311652
663.312952224899
666.863611866853
664.852732066242
659.546534792097
652.142080164125
643.938128759583
636.057721813925
628.14495089017
625.178949602773
624.319696180517
624.135633297593
624.236607794645
624.119689023872
624.985799277281
628.901308567502
636.57521779559
647.715791941514
660.155490503529
668.834070704891
668.249563325349
664.348029277042
657.222437129207
652.076391080027
652.992329181006
660.731400056751
671.226560795295
678.073626507064
679.453577975455
679.049785026436
676.046746213856
671.152154188772
665.980605935262
660.928389467033
655.560639104734
649.540859824446
642.932770441889
636.190167856834
630.14968088843
624.407806853642
619.396494346812
615.146880506792
610.2478667022
605.489798940102
601.698976740365
598.890978265286
596.281145606957
593.56101730281
591.316442231159
589.71036511505
588.170836888659
586.584567977985
584.957463397536
584.050807324394
583.876376915509
584.067440957206
584.282883276234
584.013209178477
582.743823340039
579.90425943712
575.323450828913
567.723484890686
557.597663727433
547.357105681358
547.029131177137
338.289449976515
347.239963626009
373.814098743722
369.175972450657
356.175803087398
362.551309239862
366.757438203569
362.966114493853
361.028025114014
362.7583382888
363.737374315817
363.134459353544
362.031739663746
360.86568105348
359.64028582454
358.708667129049
358.315950797145
358.292909926285
358.475288610754
358.848470036885
359.323603877493
359.501351964015
359.018016677361
357.300505434824
353.46067614215
346.816755902313
336.970974815143
1432.5901314829
1188.81163769157
1027.46434883877
927.027611567791
860.238093503272
813.45728678417
778.621817851419
751.379462737496
729.420635880488
711.189167616268
695.800052643142
682.571514197694
671.107935190533
661.138608071042
652.353697110188
644.61637693023
637.785403881513
631.720463976685
626.327108905085
621.512566006691
617.204361728917
613.396665299758
609.956314408043
606.892796676578
604.169782935238
601.701312954546
599.44319747233
597.429388189316
595.672699938713
594.116537353758
592.682035446643
591.36159885978
590.17184915445
589.097042691137
588.099512419269
587.186763819126
586.352049443633
585.600087031095
584.926035183079
584.332577927952
583.829135795491
583.426488907035
583.107327279071
582.876430567681
582.729319378463
582.656435728666
582.656624587449
582.697020563878
582.768846761037
582.876341183837
583.040088201626
583.276573819272
583.55424038349
583.806976535671
583.988555529255
584.196317291431
584.494691793643
584.87038588931
585.286740351052
585.712283483897
586.110709898114
586.481201299107
586.894208605437
587.507379574817
588.40257026112
589.505180238943
590.573931644786
591.431536813996
592.154855442524
592.953256827808
593.925838336591
594.94796667235
595.728808708234
596.180637670842
596.474724611393
596.987301566018
598.02443028603
599.376113398508
599.910736684082
591.827099442288
559.13325518117
506.436916767693
454.151550853841
413.601879192432
385.57857751366
368.244901062873
358.982306652132
354.180507723697
351.615758037676
350.710671524719
350.893760473941
351.507531966145
352.287748334772
353.25307785686
354.379971326168
355.579705251179
356.701967771866
357.803532127589
359.121289460339
360.709669214937
362.457425186484
364.338156093732
366.584928239169
369.217299859223
371.951628706775
374.44829457616
376.752925463784
379.309955010353
382.50734465012
386.214882689767
389.77789441541
392.287008893405
393.412489990477
392.065859262238
388.162050018866
381.43097822779
374.207440370586
367.565005295036
358.017981152497
350.139356500691
342.976196611323
339.332386792897
339.492391599145
343.346806932396
355.759981642149
380.727188697581
417.038945365209
458.143241734641
496.901533458616
526.843128819005
551.62566195743
574.60345468494
597.556608053989
622.947043340167
652.582219627655
683.755015799458
716.328034558753
747.946926397681
782.566730186328
812.050364961363
836.393030043927
849.868578691638
838.591473759632
824.571997168752
791.008463580822
739.285633915128
689.019653011172
695.770219127067
780.012874850884
922.27896982061
1083.00411486254
1191.80524241394
1190.99776957869
1157.73373263386
1086.5558479704
998.961064259104
916.801791047446
851.201586053751
806.165130629089
770.685098862855
733.218700142004
712.857391463381
713.915427285147
719.349503050648
728.787580285104
733.069607291784
730.586798671884
724.180075809574
715.200160113238
705.286630472614
696.075917975513
687.032556217034
683.9784827076
683.438292286722
683.750971607001
684.551078654871
685.253943162471
687.15631900717
692.398268069967
701.69555969365
714.619600684702
728.727238729588
738.502639764816
737.779249331572
733.59236684772
725.975356724663
720.823265238858
722.24724473679
731.32004346663
743.26583208818
750.867684184998
751.99415740632
751.046729070888
746.988461911718
740.791318529918
734.343633759458
728.058984510446
721.486383774287
714.270679074309
706.485510240017
698.621935707751
691.594373786882
684.967559513386
679.220596506651
674.3797966956
668.882483326317
663.608955337461
659.426792330312
656.327989343103
653.49827741918
650.603787440464
648.244509727104
646.592311016524
645.012665750992
643.396493952142
641.754354174027
640.872652944466
640.783943075848
641.074696521377
641.343230047393
640.968783071108
639.344378998855
635.812540297514
630.163923212984
620.938079532148
608.494394751765
595.497107249641
589.378958578989
345.800603138875
352.266944344858
380.358173836973
375.2703651986
361.423899135141
368.00620598435
372.333018254064
368.279762043419
366.135958776682
367.853175646546
368.803500181414
368.094169324402
366.840226647912
365.519535719925
364.156625492545
363.121037252023
362.667757574704
362.619510776385
362.798640059352
363.183739419891
363.680615613925
363.878457125195
363.419739296944
361.707821853192
357.88532564867
351.15141753989
340.72783674776
1438.43465483995
1198.32963789925
1038.61332009169
939.300231977783
873.43911623077
827.480584722106
793.415388633431
766.893512782228
745.6136022667
728.025933982722
713.248087776362
700.595499013858
689.682118301207
680.235953205375
671.94586249755
664.684625700466
658.312643760644
652.689119599101
647.721963109405
643.320833951759
639.414677158988
636.003767551607
632.947197241184
630.262140226952
627.911823038779
625.806476226792
623.902027082523
622.239000971781
620.832692891674
619.622633994953
618.524212020455
617.530973399021
616.661492463798
615.899731432305
615.205527068513
614.588432003005
614.04159020725
613.572001134546
613.175196029879
612.855640610256
612.624371047218
612.494218243394
612.446531637164
612.4867832716
612.609627091332
612.805407770022
613.07316785955
613.37731813986
613.709970825715
614.07655610135
614.498594656076
614.993480486645
615.529056711675
616.035229413744
616.459064124224
616.90452557743
617.441636698855
618.058788864611
618.719028526555
619.390583994498
620.03661553124
620.657889880851
621.325320826051
622.198446061626
623.356878275634
624.725615608614
626.061060845557
627.182823520561
628.160502659632
629.19963764694
630.400216816221
631.642522167338
632.643875650951
633.323640401225
633.848292938982
634.598508757036
635.895193122004
637.513464568853
638.533737764368
631.59222621844
599.498837556578
542.9679794562
483.786757515102
436.702516605288
403.786217219301
383.267422984786
372.109191785012
366.312244214202
363.288523541073
362.236490740391
362.443294377929
363.171525594426
364.118948586008
365.282754372264
366.628375792004
368.057060373459
369.417643543248
370.774852817184
372.382086993468
374.303423454489
376.431112500198
378.730944684419
381.423245626555
384.505429308357
387.682571253802
390.629221200059
393.432055963247
396.563216223121
400.413706103176
404.830052669055
409.069609513464
412.064572550443
413.419615441645
411.853268246125
407.306787521742
399.355187546173
390.701276818845
382.747108530892
371.574394286603
362.005769562453
353.200017299073
348.832728620735
349.057386187306
353.814264792729
368.96213515531
398.941051147818
441.918335866281
489.871100245315
534.433427055787
568.692519996683
596.969097595611
623.373072260578
650.011810492324
679.458535675765
713.690208499886
749.521235637716
786.889070496255
823.320246095734
862.665737396296
896.285350224823
924.457857672337
940.077643045179
927.550887384955
912.311353864744
875.098112759452
816.02145654262
758.418532922031
765.945118760676
860.617387642107
1020.25239190229
1197.41730193869
1316.05139856988
1313.00887556664
1273.41239464381
1192.35594705959
1093.36629652391
1000.30148084953
926.120929807796
875.208473552398
834.869241686752
793.290911956109
771.537351246966
773.827785159428
781.269291993181
792.667244383777
797.720042968134
794.813417067821
787.395950557265
776.903170065713
765.337417989638
754.884625525171
744.772880426019
741.691697711363
741.519750145855
742.394873825548
743.987148553365
745.626179092962
748.679698769935
755.303899237021
766.170900094863
780.711246694353
796.269698639876
807.039899352359
806.219193244472
801.848817831548
793.929584924229
788.949685201529
790.878722047321
801.170928408579
814.411429085475
822.689625044778
823.489472946213
821.951993219325
816.783154114917
809.257002638848
801.518750280396
793.979878956389
786.195153381729
777.804326515812
768.887349233119
759.959806933133
751.999361694605
744.551252231753
738.126665025708
732.758858124813
726.751441646652
721.048667127709