/*--------------------------------*- C++ -*----------------------------------*\
  =========                 |
  \\      /  F ield         | OpenFOAM: The Open Source CFD Toolbox
   \\    /   O peration     | Website:  https://openfoam.org
    \\  /    A nd           | Version:  dev
     \\/     M anipulation  |
\*---------------------------------------------------------------------------*/
FoamFile
{
    format      ascii;
    class       volVectorField;
    object      U;
}
// * * * * * * * * * * * * * * * * * * * * * * * * * * * * * * * * * * * * * //

dimensions      [0 1 -1 0 0 0 0];

internalField   nonuniform List<vector>
32385
(
(989.423319803825 460.556508967208 5.097439181284e-11)
(655.62852472424 305.540203113992 -1.17444115450163e-10)
(489.876919264063 228.345948166816 -7.65652888783836e-12)
(399.008664626064 186.000821641354 -3.97980839097545e-11)
(341.161033390033 159.040315951321 -3.65537755306448e-11)
(301.326819913535 140.473733409462 -1.2950048623352e-11)
(271.680067985513 126.65435016605 7.48184754398317e-12)
(248.514899372921 115.856220171987 6.19995821764392e-12)
(229.807664822884 107.135818189177 3.26232391087109e-12)
(214.225686946289 99.8722491341941 4.4919865477919e-13)
(201.045561301345 93.7279543569009 -2.39324991976818e-12)
(189.71876754816 88.447645368783 -1.13860205844416e-12)
(179.843701961221 83.8437772057356 -1.49258115222333e-12)
(171.237620747147 79.8310483467636 2.82300595351487e-12)
(163.643041720493 76.2900394283055 -9.23763593329514e-13)
(156.879305074885 73.1361337367643 3.50676174766525e-14)
(150.850420078953 70.3246801969985 3.04634960635087e-13)
(145.454480761667 67.808301231396 1.12432299797139e-12)
(140.590069925603 65.5396759522247 -3.04672713041189e-13)
(136.173282445016 63.4796975104726 1.63460407168145e-12)
(132.143682136423 61.6005744904222 -4.82421686023074e-13)
(128.461781594851 59.8829862920964 1.91280382591248e-12)
(125.082782406673 58.3068582862592 -6.91855432088517e-13)
(121.962442050236 56.8513180596482 8.11748396889778e-13)
(119.093760804087 55.5128764170848 3.87312196597491e-14)
(116.434538680658 54.2720954461971 6.2795916627279e-13)
(113.953713790952 53.1153195786328 -2.05713674718845e-14)
(111.643273963997 52.0387836518209 9.64993643037993e-13)
(109.499381313619 51.0395219961358 2.92795722475445e-13)
(107.49926247056 50.1059071201663 1.10468149989092e-12)
(105.618351347151 49.2274158887653 1.12419382571267e-12)
(103.845364621753 48.3996864722924 9.57947204118059e-13)
(102.182416640412 47.6231400845738 1.71079168957926e-12)
(100.617860372546 46.8917634143584 -1.85270099679323e-13)
(99.1367374329211 46.1992508521481 1.11142840839273e-12)
(97.7326777551886 45.542943919716 1.20421499201241e-13)
(96.4040096041362 44.9221787315935 1.63331353332993e-12)
(95.1409286172585 44.3323572234102 -4.96549369375781e-13)
(93.9404925045829 43.7721678984339 2.19467785879053e-12)
(92.7927870780113 43.2369960258926 -7.19193215651816e-14)
(91.6964229303319 42.7260191181853 6.07356520777071e-13)
(90.6496971334376 42.2379035195159 -7.41999051169628e-13)
(89.6509539836755 41.7720390118101 1.22057177993744e-12)
(88.6985330605788 41.3276332543642 -3.19941745910486e-13)
(87.7966458295871 40.9063910759476 3.54489398086e-13)
(86.9395440361704 40.5058327856791 5.58690071360057e-13)
(86.1260467207086 40.1252324066742 7.6169428497429e-13)
(85.3462528917904 39.7598655148207 4.98249713757502e-13)
(84.5923188867455 39.4065472719683 4.81343265574714e-13)
(83.8643034761832 39.0661489830586 1.06537596017576e-12)
(83.1640222193048 38.7392975301314 4.95811662528385e-13)
(82.4977008636288 38.4269089947666 3.77068114062827e-13)
(81.8652347976656 38.1282246658692 4.61421790274278e-13)
(81.2566206668664 37.841207395785 5.87703722049413e-13)
(80.6548637907957 37.5621264883601 4.71461716432568e-13)
(80.0626115744401 37.2906907107461 2.3857333265048e-13)
(79.4934592340282 37.0287785807548 -3.4252492130205e-14)
(78.9420169300784 36.7714359275414 -1.75824691677717e-13)
(78.4036017302013 36.5169223573018 6.6502658131438e-13)
(77.8735224156568 36.2646391735312 7.55674515403882e-13)
(77.3477188692364 36.0155213908435 5.91409705316922e-13)
(76.8252317061273 35.7739553044195 4.42573448543305e-14)
(76.3232137855073 35.5519666406556 3.45674893490891e-13)
(75.8768956552417 35.3618978440444 -2.00080646216375e-13)
(75.5181989214875 35.2070968168506 6.07825551508397e-13)
(75.2363578653067 35.0717939317885 -5.4176928678568e-14)
(74.9868368522357 34.9386629362963 7.37465620371377e-14)
(74.7103347812302 34.7987478254257 5.8326157940519e-13)
(74.3987083353359 34.6601877459368 3.43061756584741e-14)
(74.0743041712491 34.5243311548151 3.71557688808314e-13)
(73.7640122816247 34.3841825518963 4.07356053950714e-13)
(73.467047977134 34.2249133767049 4.54345249646724e-13)
(73.145407669785 34.0397139950196 3.30011365612968e-13)
(72.7734016555478 33.8457745783111 3.11419889647802e-13)
(72.3696945553122 33.6668866928519 4.12568020519734e-13)
(71.9723186914331 33.5147319911404 4.21547978847776e-14)
(71.5921084680048 33.3739055441687 5.44715200930137e-13)
(71.0426645349543 33.129635202094 2.08746192727711e-13)
(68.4597656555707 31.9109316248638 3.86628758976967e-13)
(53.6233859924776 25.0632001242365 -4.12328102831844e-14)
(21.8078825048209 10.2470909487834 1.41544283547106e-13)
(1.23527943891507 0.63733569713583 2.55546451463236e-13)
(-4.72455074603291 -2.14435320564228 7.78589172673979e-14)
(-5.47913059435528 -2.57396242543191 -1.11104111199078e-13)
(-5.14086005819431 -2.44728279488983 1.28067211583769e-13)
(-4.71316058371457 -2.17967797218989 -9.91000783873336e-14)
(-4.21417039258491 -1.93194028279812 2.55115494219678e-13)
(-3.71916821595858 -1.73985751339217 -2.23964423198341e-14)
(-3.42484196882764 -1.59854149136056 -1.64626936642688e-13)
(-3.25728321985164 -1.49405707826978 -2.008325247318e-13)
(-3.04171733208328 -1.39372764735389 2.19909441387604e-13)
(-2.80731896363686 -1.29501339685546 -4.73826832134554e-13)
(-2.62914629241121 -1.21560585892606 -1.07800511193686e-13)
(-2.48975088137232 -1.15092392565083 -2.72780531788241e-13)
(-2.35306261416646 -1.08911024099852 1.56568202800549e-13)
(-2.21945186112399 -1.03406960812949 8.80255588733911e-14)
(-2.11876140873265 -0.99126586860764 1.8335185019103e-13)
(-2.0695525368932 -0.96148925747491 -2.21832381646196e-14)
(-2.03637015857341 -0.936890378882022 -2.10984031501188e-15)
(-1.99088988704793 -0.914416890104101 7.14928023200798e-14)
(-1.9624680606776 -0.902138775681472 -1.3862166220074e-13)
(-1.96701909463989 -0.885173277178724 4.45273317286444e-13)
(-1.95668904328647 -0.851767401140011 1.82022181280977e-13)
(-1.85206926791502 -0.790827595341829 1.65056573728011e-13)
(-1.6695701396632 -0.730307459717876 8.7942111504663e-14)
(-1.51884135831583 -0.710364466688814 -2.45611385029471e-13)
(-1.44140931977312 -0.711340892165455 7.75505761903746e-14)
(-1.42878618266741 -0.700698472860894 -5.58692184609592e-13)
(-1.38630809242769 -0.657422453084494 -1.53887270914521e-13)
(-1.2823876532902 -0.587297809331822 -3.97844259476277e-13)
(-1.06325706809327 -0.469685272113478 -4.29894708984065e-14)
(-0.653584240320398 -0.265780946072932 -1.63619868044434e-13)
(-0.10557249169063 -0.0274043297492348 -1.57771697079363e-13)
(0.586088866263086 0.301907209633756 6.91132923487562e-14)
(1.04355972409673 0.492277339897717 1.06010402453511e-13)
(1.14955590432716 0.540708064929702 2.61849660211758e-14)
(1.00733020842578 0.506814087492363 -3.12691625188775e-13)
(0.624893645116591 0.365754515404797 -1.09354363773378e-14)
(0.00364239053765958 0.0690585232352031 1.58873751484443e-13)
(0.216006977194795 0.346931128910426 -2.46718464719177e-14)
(-0.0304336592604441 -0.00979721395515457 -2.29090468209665e-13)
(-0.228868615554276 -0.282032222356021 -2.75778951153432e-13)
(-0.14851706316921 -0.172052237531382 -2.81571756479026e-13)
(-0.202662226726576 -0.25108875918143 -4.54982724284871e-13)
(-0.130666070051859 -0.171163329468256 3.51755621229019e-14)
(-0.419855451706364 -0.58365716544628 4.69669461109273e-13)
(-1.55118025383574 -2.16497740774033 2.25615741412493e-12)
(-4.16557825410255 -5.82942558271206 7.39730456554718e-12)
(-7.70340960275321 -10.8311161677889 1.69475533391135e-11)
(-10.9596975565591 -15.4461934491932 3.32042771742268e-11)
(-12.7764129241884 -17.9915205068091 6.59897888607579e-11)
(-13.7922628606227 -19.3800080029103 1.02655954157382e-10)
(-14.1889444067228 -19.8752869167394 1.37115429180589e-10)
(-14.3408582012457 -19.9955108092333 1.47089686751795e-11)
(-14.1436313126997 -19.5983891574118 -2.42772600051096e-10)
(-13.6082745426694 -18.6924128713341 -3.25346102492691e-11)
(-12.6242806725198 -17.1019028134945 8.79683742004094e-10)
(-11.5388271714406 -15.2895602532106 -4.41854670454494e-12)
(-10.0865947889039 -12.8952054589506 -1.68529466343337e-10)
(-8.36499381037982 -10.0705973103364 2.39789631695579e-09)
(-6.99286906463819 -7.82186174407697 5.05490209546443e-09)
(-4.72644927557477 -4.89464856341989 5.61881502094849e-09)
(-3.37182047295953 -3.25780701931647 4.58333678591094e-09)
(-3.84307489583542 -3.79569673359067 3.10222341625623e-09)
(-4.29054612382505 -4.33307693479742 1.33279611871997e-09)
(-3.73111976398833 -3.87445588927586 -1.03497970857555e-08)
(-5.81646420420171 -6.36533341987783 -2.12036048040793e-09)
(-8.04007697076006 -9.12897380715612 -1.43768509415475e-10)
(-11.1680960984538 -12.7018065010271 -1.72182068661716e-10)
(-8.66781205977423 -8.50750086669174 -1.58098838509719e-10)
(1.21827364518398 3.89167209225571 -1.1118235422118e-10)
(12.6141851377773 25.6583395659114 4.05006284898465e-10)
(25.7384677399163 44.7559171825012 1.40761723932891e-09)
(37.2105896323461 60.1843462186174 1.03900776159954e-09)
(46.3051690238428 71.5077969119234 2.97474038740147e-10)
(51.2012151117661 76.8305865583248 1.93699125200409e-10)
(52.25705360005 77.0590053963559 8.66446476867523e-11)
(50.3556622662659 73.5457884450751 -4.57557685157844e-12)
(48.1773260808822 69.9292608768932 -7.50585748157105e-11)
(47.8605087039222 69.1149772001691 -7.54987536918632e-11)
(44.6075837401831 64.429524653506 -7.46055849191966e-11)
(38.6629679700627 55.7484812794948 -5.50245131350161e-11)
(33.2430093098996 47.9460834923112 -3.11655131673175e-11)
(29.4656703158569 42.6110588356692 -1.23082706099017e-11)
(28.521021422788 41.3294882094737 -7.94776119625612e-12)
(29.6580891785897 43.0156099849215 -4.35471930894827e-12)
(30.7941675717807 44.6523219038281 -5.66038023371626e-14)
(32.047601203194 46.4124219040679 5.29425405145851e-13)
(33.1818485704322 47.9792651274444 4.0217206208779e-12)
(33.6829554060995 48.6039879015471 -5.72529730664018e-12)
(33.1556721338096 47.7776042918373 4.15646791621103e-12)
(31.7771292195298 45.755827282565 6.2087813419289e-12)
(30.0511324416012 43.2747659289207 -9.24891579766801e-12)
(28.5157298620914 41.0999775841155 1.60736944372289e-12)
(26.8896358310094 38.7943985917873 1.34474894146895e-11)
(24.9681314966824 36.0742934847042 1.5014878869367e-11)
(22.7891629640953 33.0248624650708 1.43764000010509e-11)
(20.5552929493227 29.9430682560568 1.29184245228653e-11)
(18.9020639511225 27.662111316686 9.6919812802563e-12)
(18.3433785801102 26.9222747986471 7.84544573432176e-12)
(19.064540419287 28.04103130612 5.05108007092318e-12)
(20.716654752768 30.5377815862298 3.32917806030266e-12)
(22.5240582141341 33.1615629311467 1.46081019953035e-12)
(23.1165139925493 33.9858280807461 -2.2398588891249e-12)
(22.4742680033098 33.0715317958767 -4.05561129847899e-12)
(20.6157083354574 30.4495357862684 -4.11281523604372e-12)
(18.282168762976 27.1963997382175 -3.75282457199683e-12)
(17.0916352430263 25.5774890765613 -2.53331050319797e-12)
(17.5047268728515 26.2593699804799 -2.21354549118948e-12)
(19.1538339357779 28.6975094486397 -1.50049609000048e-12)
(21.0218639914078 31.4073041276404 -1.24857035142526e-12)
(22.7896144856124 33.9378583225434 -1.03491214244726e-12)
(24.4188945969274 36.2293951623098 -5.40455175200092e-13)
(25.8589769328182 38.2290975228066 -6.72830008765621e-14)
(26.8695162556009 39.5874485341951 2.63071981967779e-13)
(27.6093204842307 40.5471601219291 2.64832409080571e-13)
(28.1987655626726 41.2887624241959 4.61788539590128e-13)
(28.613342460783 41.7874780938362 3.93805745345702e-13)
(28.7741681629309 41.9338989458353 4.38653589527603e-13)
(28.6544832466456 41.6898704270225 5.2679507255333e-13)
(28.3187225806507 41.1587705839775 5.98235708351702e-13)
(27.9032802543247 40.5092771385629 4.72419805708947e-13)
(27.4065440697331 39.7386132499256 3.10626440988072e-13)
(26.8260900923632 38.8968480872917 1.08386350970106e-13)
(26.2110969198724 37.9661977246495 -2.32056215840289e-14)
(25.4650166410081 36.8582027167195 -1.1668224988202e-13)
(24.6006398309319 35.643525846807 -3.30369461741756e-13)
(23.722230646239 34.421786557396 -1.75288581968731e-13)
(22.9587573744527 33.3123657430858 -1.96816831062217e-13)
(22.2469649560236 32.2456280539894 -2.58556791901545e-13)
(21.5095991519728 31.1989783952613 -6.38499546925058e-14)
(20.7683397664984 30.1850683922146 2.26929500510751e-14)
(20.0656591684256 29.2048962237625 1.69840503979724e-13)
(19.3710638440219 28.2092555569498 6.32187653052974e-14)
(18.6852049045943 27.217413127397 1.50836136455458e-13)
(18.0559238420943 26.3173173440612 1.79829173527342e-13)
(17.5952904082433 25.6864320071073 3.45910715679959e-14)
(17.3608286817677 25.3645433793609 1.74510605215068e-15)
(17.3323722628063 25.3322700962638 6.50735723252829e-16)
(17.495490284323 25.5666759477668 1.2097814534454e-13)
(17.7926677085613 25.9775435357862 8.7349827557172e-14)
(18.182974009141 26.50743631285 2.66576129227267e-14)
(18.5839553956292 27.03752969997 3.32626489342366e-15)
(18.9797932622932 27.5459299553159 -4.23641958172206e-14)
(19.3178761797202 27.9550499060803 -6.87051801629663e-14)
(19.9126453532939 28.7014199216721 -2.26028926348704e-14)
(21.8310051667258 31.3391354518454 -1.9096982086303e-14)
(34.9641933479172 49.7579358568817 -4.87767049831303e-14)
(93.6946478702775 2.28159698349698 -1.29717513041842e-14)
(95.9907757632791 0.861252327065729 6.75126948521504e-15)
(103.186473143061 -0.157088799448687 -3.94710054177327e-15)
(103.785649756041 -0.563517993681401 2.51376266508868e-16)
(93.1644681973698 0.439892649939129 -1.08110810183585e-14)
(94.1600195529214 0.296094751660772 -2.23480110529407e-15)
(95.6399561470361 -0.122419230973928 7.15165101132254e-15)
(91.6762523297032 -0.0551688811817993 1.60361592142946e-14)
(88.9350694836202 0.157426927028686 1.52624625974443e-15)
(88.4782732112022 0.0907303277104508 -1.94283107572557e-14)
(87.593624032909 -0.0141446079300251 4.22766819465284e-15)
(85.8461836345393 -0.0401209682138905 -9.02952366102693e-15)
(84.0004264345415 -0.0330338781423892 -1.64138559932364e-15)
(82.193406896832 -0.0253426499157187 -6.98989908733341e-15)
(80.3613048452705 -0.00209562713579535 -3.07010317329112e-14)
(78.7088348591868 0.0306063680092641 1.99760969211886e-14)
(77.3809622509099 0.0508915829961004 -3.98178976319304e-15)
(76.2921488663041 0.0593322164757108 1.2051465727823e-14)
(75.3321613893457 0.0631868281786465 -2.54089430582852e-15)
(74.4578094212369 0.0609814765773024 -1.53988753882874e-15)
(73.4523012336282 0.0445907666227828 5.14668581699914e-15)
(71.4377002831405 0.0276725407943641 1.73570884167236e-14)
(67.2988772065717 0.015785372663185 8.18695373361614e-15)
(60.8884275829617 0.0180372133067349 -2.24221359361669e-15)
(49.3410167084173 0.0693719734009841 1.20766013954121e-14)
(39.4111812678491 0.106395122653814 1.32732520658053e-14)
(33.2077087794037 0.121242215505832 1.00929432363975e-14)
(997.445781804472 462.492539417995 4.98077030673454e-11)
(664.924384966331 309.465026121735 -1.16125149775385e-10)
(499.219072503352 232.518785303335 -8.01995658936868e-12)
(408.60480187874 190.355132403108 -3.93639720864787e-11)
(351.071112237099 163.572656533415 -3.63027601095559e-11)
(311.576911492983 145.182790407173 -1.30730648860622e-11)
(282.288096550892 131.541057433293 7.31082716073405e-12)
(259.481605858494 120.918346920753 6.24200678964225e-12)
(241.130167137534 112.369751563098 3.196210963037e-12)
(225.898073829802 105.274170823666 6.63751984950927e-13)
(213.062377173941 99.2937425753182 -2.50074036127726e-12)
(202.069422667734 94.1718764606337 -1.06819416824531e-12)
(192.521082391542 89.7220309264437 -1.58973530830058e-12)
(184.23593585268 85.8593250554216 2.79815839503178e-12)
(176.95222000281 82.4637821683787 -1.11291545178634e-12)
(170.493548612996 79.451941035676 1.40325953062703e-13)
(164.766532006599 76.780600882693 3.00134156549401e-13)
(159.668835132022 74.4025009056382 1.27899516836031e-12)
(155.098390223347 72.2699501713994 -2.43169522882747e-13)
(150.971815848425 70.3441213620977 1.8554893479368e-12)
(147.228762034294 68.5981231311514 -3.39695240174431e-13)
(143.833895048615 67.0125606471201 2.06001480742494e-12)
(140.736990316359 65.5666336782457 -6.71774966444383e-13)
(137.897483821796 64.2406417340078 9.19517737173607e-13)
(135.31044250321 63.0315614331098 1.13117000232275e-13)
(132.929908538369 61.9187385045107 6.67537307258032e-13)
(130.723554365457 60.8897476801383 9.04028659985694e-14)
(128.688578927478 59.9431814165322 1.18189399718755e-12)
(126.824920976327 59.0752406266616 4.83779031609023e-13)
(125.106957102058 58.2707533534823 1.33422537418941e-12)
(123.504958058357 57.5188391466808 1.39435479868804e-12)
(122.008153200295 56.8173512430054 1.05254387044797e-12)
(120.621395029436 56.1667440054744 1.86674007320877e-12)
(119.332168096449 55.5593217927906 -3.11731162170728e-13)
(118.122171262198 54.9886943167589 1.2544068393443e-12)
(116.98587928237 54.4532771138263 1.58789734168105e-13)
(115.921764058504 53.9527315986659 2.01840537138075e-12)
(114.92047896076 53.4826114619562 -5.00475888431865e-13)
(113.979360806711 53.0418679272835 2.45701930721158e-12)
(113.088676667942 52.6259835204432 -5.09091153757322e-15)
(112.248460203948 52.2344101024803 8.56968875064372e-13)
(111.458649079402 51.8653920072305 -8.38641895598489e-13)
(110.716744246495 51.518280452665 1.46848620667795e-12)
(110.021977522099 51.1926527503168 -3.87832234739071e-13)
(109.379291239821 50.8899933476538 5.73138904205061e-13)
(108.782059210819 50.6078513144417 7.7215397699681e-13)
(108.229820687371 50.3454555318984 9.18112325576288e-13)
(107.709903171052 50.0965660041403 6.42893154563077e-13)
(107.213214764137 49.8584370283305 6.64655865022365e-13)
(106.7406761706 49.6341690271881 1.30780281933052e-12)
(106.296646772875 49.4251035010364 6.14288067593661e-13)
(105.890881114007 49.229469327051 5.73304654870308e-13)
(105.521898055324 49.0443156029408 5.08472351330136e-13)
(105.172643522566 48.8700498012226 7.71044414007498e-13)
(104.818218158926 48.7084492291085 6.16440502413416e-13)
(104.469447038281 48.5596621787105 2.40730566246594e-13)
(104.149030389444 48.4200873101486 1.34779895113614e-14)
(103.850833782962 48.2790920518018 -1.29610283388047e-13)
(103.56687054993 48.1343315038197 7.99665139291853e-13)
(103.289704484557 47.9873882280329 8.71548391893725e-13)
(103.01147236209 47.8435827887364 6.34669242390597e-13)
(102.729280736708 47.7168251387435 1.8646765898068e-13)
(102.466931776488 47.6310209695293 6.12176121860298e-13)
(102.279401255186 47.5989646707099 -2.26674744899766e-13)
(102.215089950875 47.6065990193059 7.19661597830968e-13)
(102.258837830172 47.6129037762165 -5.91431777799567e-14)
(102.33635927728 47.5938586072937 1.94325322625579e-13)
(102.35503174661 47.5654645445783 7.25443310905759e-13)
(102.308521902078 47.562809374857 1.45264604596368e-13)
(102.246201803843 47.5803220500439 4.64151553073781e-13)
(102.216537497122 47.5788215836758 5.73291577913067e-13)
(102.214570294887 47.509853146482 5.92579052101813e-13)
(102.163739209632 47.3726446738247 4.93690696243436e-13)
(102.016391683822 47.2366065824042 4.29874026581771e-13)
(101.803595833036 47.163654576932 6.14660816330395e-13)
(101.607582963951 47.1745471765524 1.07892466704416e-13)
(101.469244613752 47.221774981512 7.15280662980046e-13)
(101.173824060008 47.121483666662 3.34141248430381e-13)
(98.2836462438885 45.7394804375756 5.53637550095705e-13)
(79.3110872096685 37.1617545928564 6.80911304891294e-14)
(35.3275895829886 16.7373385438855 1.35905642401943e-13)
(3.00161038511663 1.5552008839485 3.33369552810904e-13)
(-7.76918579102464 -3.54808659752871 4.8521063102799e-14)
(-9.87775981427971 -4.75936190623149 -2.61051186618407e-14)
(-9.63576808116073 -4.72288121298438 1.4351984648491e-13)
(-9.04386747708604 -4.21676752467256 -1.32368759865074e-13)
(-8.23110107822838 -3.77598750676939 4.11616558955387e-13)
(-7.36298286885527 -3.48902205351844 6.58179776396609e-14)
(-6.83959913150946 -3.23278257563301 -2.72168572027529e-13)
(-6.53906637795123 -3.0082188751623 -4.1937279605452e-13)
(-6.13711005412973 -2.82117326050001 4.00375110147039e-13)
(-5.70337962360356 -2.65545806437421 -8.05437897393718e-13)
(-5.3720536263879 -2.51557426340962 -2.02370243201005e-13)
(-5.10878325883956 -2.39616308694481 -4.80973106438114e-13)
(-4.84903491899291 -2.28376970788761 2.48562168367207e-13)
(-4.59882290820244 -2.19322501564051 3.09307441048585e-14)
(-4.41594585904539 -2.12449753023862 1.16018162751263e-13)
(-4.32967029108007 -2.06607577781231 -2.36939222791896e-14)
(-4.27256673153954 -2.01386175141977 1.11940128227825e-13)
(-4.1923356061286 -1.97656472986784 1.70055438992834e-13)
(-4.14218950136781 -1.96190023355425 -3.00802006977979e-13)
(-4.15822419167584 -1.91729082638697 7.17830345015318e-13)
(-4.13102934950269 -1.8226899191449 2.53125964395598e-13)
(-3.92411701333772 -1.69218121180847 2.07658953375589e-13)
(-3.57188726708332 -1.6112126618253 -2.31302764563242e-14)
(-3.26517050095172 -1.63165139698188 -4.62726360187968e-13)
(-3.09486889297675 -1.67688308864441 1.92606091971354e-13)
(-3.03780427859861 -1.653479782021 -1.16483170869024e-12)
(-2.93374549585643 -1.54735546038849 -1.95818122631901e-13)
(-2.69383880029331 -1.38550085071567 -8.35967102691507e-13)
(-2.2137912905185 -1.13561000445548 -4.45631713017552e-14)
(-1.31487217054539 -0.697996449477443 -8.49894603141131e-14)
(-0.128566848994234 -0.102462093785053 -1.89538217381991e-13)
(1.28833183143091 0.466556750499395 3.38894710751546e-13)
(2.32947390956868 0.883885947453034 4.92618098472417e-14)
(2.60765108524908 1.02549436735393 1.84147765791782e-13)
(2.34047318756807 1.01552646556351 -4.57523536789365e-13)
(1.57566140827517 0.754116126286624 -8.91123360422027e-14)
(0.159054074692471 0.226987020109608 2.16174591683524e-13)
(0.574361442214157 0.817163930112986 -1.95732329877687e-13)
(-0.00564251784543816 0.0429123604240681 -3.18234385594632e-13)
(-0.35492921819388 -0.482315900965836 -4.74323241290931e-13)
(-0.24863671532929 -0.314812239280417 -6.3531270640173e-13)
(-0.389509273131742 -0.531502205168701 -7.87348421295902e-13)
(-0.267106726704132 -0.437648490062206 1.36046357045763e-13)
(-0.941645402996443 -1.4574414243459 1.17841982324389e-12)
(-3.45924730947374 -5.06738688856168 5.04225835889381e-12)
(-8.91564861488737 -12.8539141748665 1.60178352254673e-11)
(-15.9088529684464 -22.9801020752281 3.59034386815688e-11)
(-22.1653324628342 -32.0810566889804 6.93552878109693e-11)
(-25.4760608942808 -36.9630419158481 1.37531549184319e-10)
(-27.3400916331455 -39.7578001072122 2.15853219318965e-10)
(-28.0314939423615 -40.8826932058232 2.9305585738638e-10)
(-28.1763196922574 -41.2487714909103 4.13881870161647e-11)
(-27.5548609895083 -40.6295183435327 -5.08863687799173e-10)
(-26.1658404992324 -38.9250290859023 -5.20955384694721e-11)
(-23.7341246969411 -35.799841216318 1.85391867269071e-09)
(-20.9003331940838 -32.0478513859438 2.12585160175089e-11)
(-17.2843177977472 -26.9564318924616 -3.21981547358422e-10)
(-12.9543194336499 -20.7956753753109 4.7192811736469e-09)
(-9.29984013797169 -15.2832441921921 9.19373174885165e-09)
(-5.44221951641993 -8.85201680395942 9.41381322585617e-09)
(-3.47350089597844 -5.80116647730841 7.39037917667451e-09)
(-4.08041051184801 -6.80358078693401 5.08287253441613e-09)
(-4.78569864177048 -7.76658823964712 2.48334577701063e-09)
(-4.05114405977239 -7.11764008915877 -1.66650350840212e-08)
(-8.19241470420016 -13.6603687483623 -4.02497266217725e-09)
(-12.3376551761668 -20.0173919373219 -2.95094267089297e-10)
(-17.5079456543241 -28.0666887694573 -3.47303401877015e-10)
(-10.3359551775966 -16.6615202997406 -2.57239503914217e-10)
(4.7892998633166 4.74015228445563 -1.66947575204507e-10)
(36.9534785011078 47.8967275191422 8.47977164678674e-10)
(65.7183157723462 89.2517690820851 3.25712512764069e-09)
(88.9708647616267 123.244249629053 2.49081807791706e-09)
(104.65851935551 146.830941649047 7.23230364377811e-10)
(111.225652714723 157.252337213648 4.74373573624321e-10)
(110.430647292135 156.658736874374 2.22009690358988e-10)
(104.372186039262 148.187716400616 1.40201647867367e-11)
(98.2986726606824 139.360519085331 -1.41646257219587e-10)
(95.6127151290062 135.511119938844 -1.47854964134992e-10)
(87.9450361045709 125.33006684857 -1.46137171335683e-10)
(76.8655430971847 109.015548368443 -1.10528765906421e-10)
(67.5198393849739 95.1844069541419 -6.42789257714806e-11)
(61.1167662201099 85.8315762630649 -2.60284755030471e-11)
(59.7982504229375 83.7513605876608 -1.73014594980078e-11)
(62.0089233365182 86.9862750447996 -9.61627324811549e-12)
(64.0388681133128 90.0224710732682 -5.40844463867535e-13)
(66.0716765072105 93.0468757103915 6.27183605090064e-13)
(67.7298130960329 95.5447816035886 8.12770297120235e-12)
(68.229605644101 96.257442011506 -1.16652354032251e-11)
(66.8962845802126 94.343738609758 7.59177108577214e-12)
(64.1602262156647 90.3963705503972 1.27764636166884e-11)
(60.9818206532065 85.7877797497153 -1.87604295552271e-11)
(58.257946350392 81.8865826242141 2.08764604328237e-12)
(55.4454728343785 77.8222687967872 2.63937243203409e-11)
(52.1454214517182 73.0405386532359 3.02972357044944e-11)
(48.356476214027 67.6379711643232 2.95398228227208e-11)
(44.4653678870991 62.1600389938127 2.72517248338078e-11)
(41.7099952725546 58.1135090708479 2.10631780521678e-11)
(40.9949742395639 56.8509596709302 1.75911280134232e-11)
(42.749593180707 59.2038233747783 1.18012557696194e-11)
(46.276984662695 64.2875789599971 8.09351216496112e-12)
(50.077631024045 69.6437688811041 4.20050775947183e-12)
(51.377039548177 71.4630022521428 -4.00336179985517e-12)
(50.2181106621197 69.8658030742784 -8.37872296778572e-12)
(46.6986538652188 64.9526513717002 -8.84404671324472e-12)
(42.2288714492052 58.6650917741418 -8.1000226719271e-12)
(40.126796946793 55.5520789283197 -5.61183578783835e-12)
(41.1878598929476 56.8759885627438 -4.96106995155217e-12)
(44.7273261681644 61.7955426731103 -3.60948424246059e-12)
(48.7184663851757 67.4448010533001 -2.82707193662107e-12)
(52.2961455137352 72.618655800175 -2.39910683638797e-12)
(55.5243113100032 77.2716489611177 -1.29533948070293e-12)
(58.2504026531972 81.274668083296 -2.6542956911423e-13)
(60.0201272739619 83.8851868862176 5.565767246952e-13)
(61.2206248613676 85.6366224009036 5.52265136100678e-13)
(62.1050974778336 86.9056003178001 9.21162782477229e-13)
(62.6124180981349 87.6497048592331 9.27129943521637e-13)
(62.6046270693684 87.6810199829689 9.82168429833395e-13)
(62.0487073201419 86.9411762703267 1.07546207880209e-12)
(61.084505206634 85.6515008271484 1.23211041634931e-12)
(60.0051984859132 84.1401112517094 1.0146009162118e-12)
(58.7995063018697 82.4071642993128 6.16784447948147e-13)
(57.4624925682562 80.5957859413974 3.5062576799478e-13)
(56.1224414008984 78.6277444914816 -1.9063574311379e-15)
(54.5455426384101 76.3545796475653 -1.93103343300982e-13)
(52.7319562478518 73.9066608531327 -6.6069116198589e-13)
(50.9566510581367 71.5150882064479 -2.79417296780995e-13)
(49.4441162152095 69.3190853551268 -3.94623950235519e-13)
(48.0406121802313 67.1811729045064 -5.1432739309989e-13)
(46.5749384334553 65.1236882512692 -2.27470889113103e-13)
(45.1202915352634 63.1805190177986 1.76015021766704e-14)
(43.7729654855758 61.3070660168536 2.82337416074092e-13)
(42.4495178692961 59.3825964773989 1.61070029099321e-13)
(41.1352789224046 57.4440957129734 3.5834293571096e-13)
(39.9225597146878 55.6827993536481 3.37263540828737e-13)
(39.042985381071 54.4714905615149 6.07742416073884e-14)
(38.6015451418325 53.8419869319145 2.93928891302083e-14)
(38.5515235465647 53.7684281045109 6.43022981784121e-14)
(38.8621865051203 54.2097553460622 2.12594244467534e-13)
(39.4079484156436 54.9739706220851 2.29807393534173e-13)
(40.0751354847833 55.9170901972034 2.27213960419896e-14)
(40.6699366081494 56.7734476014508 4.90580180679787e-15)
(41.1539737993688 57.4889890578762 -7.75266068225042e-14)
(41.3060977557473 57.7654557487332 -1.60627397049004e-13)
(41.7178713798823 58.4071844037987 -4.67981200653861e-14)
(44.0321518349302 61.739354242232 -5.30882695902184e-14)
(64.3768184789118 90.4851927318806 -7.75983933240424e-14)
(112.980151923752 6.73954173382533 -1.63407544883944e-14)
(113.105604955761 2.79898452628122 7.95930196517948e-15)
(122.110399252397 -0.489511068552039 -5.55142000238736e-15)
(119.864161020521 -1.79530381982096 3.0192633388085e-16)
(106.681949780953 1.41941914972942 -1.24452766226601e-14)
(107.996347415875 0.957801508304547 -3.35212596454756e-15)
(109.006174766583 -0.385971565849393 8.09506292868099e-15)
(103.641948616891 -0.172366773488097 1.87742466777934e-14)
(100.205538320978 0.508971928271509 1.77254720535627e-15)
(99.4504278947142 0.295267313901871 -2.18329196240804e-14)
(98.1057646337783 -0.04216263521197 3.56176622557048e-15)
(95.7931216226129 -0.126318673924856 -1.02295893201566e-14)
(93.424129458075 -0.10414041494405 -1.84786345938999e-15)
(91.1423517238996 -0.0797623278844294 -7.75566217289555e-15)
(88.8861330889601 -0.00538085970543844 -3.40164662590182e-14)
(86.8941127585936 0.0995711150621968 2.20262079960983e-14)
(85.3131587662331 0.164724649477995 -4.42318862903716e-15)
(84.0294321835874 0.191789306900949 1.24120899419758e-14)
(82.911344896022 0.204104272918322 -2.80478786579076e-15)
(81.9064044734738 0.197023939595252 -1.0793635462445e-15)
(80.7696235439002 0.144409241166472 5.60468178606414e-15)
(78.5484506675505 0.0907214886107923 1.92985337116456e-14)
(74.0677056419394 0.0539286037932786 9.31715162639584e-15)
(67.1498404939091 0.0623139361350171 -2.50546563996556e-15)