/*--------------------------------*- C++ -*----------------------------------*\
| =========                 |                                                 |
| \\      /  F ield         | OpenFOAM: The Open Source CFD Toolbox           |
|  \\    /   O peration     | Version:  dev                                   |
|   \\  /    A nd           | Web:      www.OpenFOAM.org                      |
|    \\/     M anipulation  |                                                 |
\*---------------------------------------------------------------------------*/
FoamFile
{
    version     2.0;
    format      ascii;
    class       volVectorField;
    object      U;
}
// * * * * * * * * * * * * * * * * * * * * * * * * * * * * * * * * * * * * * //

dimensions      [0 1 -1 0 0 0 0];

internalField   nonuniform List<vector>
12225
(
(9.88226 -1.12989 2.24499e-47)
(9.78836 -0.592567 3.02929e-46)
(9.59718 -0.336074 3.48522e-45)
(9.396 -0.194502 4.22672e-44)
(9.21095 -0.112442 5.32415e-43)
(9.04186 -0.0634575 6.67702e-42)
(8.88702 -0.0334686 7.99392e-41)
(8.74567 -0.0148062 8.70783e-40)
(8.61702 -0.00311275 7.94784e-39)
(8.50007 0.00420044 4.70736e-38)
(8.3938 0.00871992 -1.77421e-37)
(8.29724 0.0114374 -1.29939e-35)
(8.20952 0.0129808 -4.734e-34)
(8.12985 0.0137506 -2.77861e-32)
(8.05754 0.0140039 -2.09542e-30)
(7.99203 0.0139462 -1.511e-28)
(7.93162 0.014069 -6.80121e-27)
(7.88238 0.000283792 9.02892e-25)
(9.99935 0.384935 1.50431e-46)
(9.99152 0.3332 2.20189e-45)
(9.96125 0.24222 2.86906e-44)
(9.92088 0.180093 3.86658e-43)
(9.88025 0.137918 5.26991e-42)
(9.83856 0.108702 7.00644e-41)
(9.79519 0.0884285 8.76363e-40)
(9.75078 0.0741815 9.86228e-39)
(9.7061 0.06393 9.19529e-38)
(9.66166 0.0563443 5.41116e-37)
(9.61788 0.0505626 -2.56256e-36)
(9.57509 0.0460174 -1.62837e-34)
(9.53361 0.0423248 -5.51408e-33)
(9.49368 0.0392162 -3.10493e-31)
(9.45559 0.036494 -2.40412e-29)
(9.41965 0.0340461 -1.96607e-27)
(9.38694 0.0319015 -1.59739e-25)
(9.35848 0.0325041 -1.26659e-23)
(9.99313 0.0247292 5.15962e-46)
(10.0012 0.0084775 8.58466e-45)
(10.0117 0.00275237 1.28306e-43)
(10.0115 0.0120212 1.94481e-42)
(10.007 0.0221732 2.92201e-41)
(9.99951 0.0297579 4.21912e-40)
(9.98912 0.0351281 5.67445e-39)
(9.97659 0.038803 6.82918e-38)
(9.96259 0.0411671 6.81555e-37)
(9.94757 0.0425449 4.41819e-36)
(9.93187 0.0431972 -1.42206e-35)
(9.91577 0.0433138 -1.0613e-33)
(9.89951 0.0430201 -2.23819e-32)
(9.88333 0.0423854 -4.52049e-31)
(9.86749 0.041424 -1.09808e-29)
(9.8523 0.0400799 9.26645e-29)
(9.8384 0.0380437 5.94193e-26)
(9.82469 0.0333857 6.87505e-24)
(9.99922 0.0243575 1.33002e-45)
(10.0098 0.0455555 2.46311e-44)
(10.0251 0.0525143 4.14072e-43)
(10.0324 0.0573837 6.99737e-42)
(10.0364 0.0595698 1.16185e-40)
(10.0389 0.0595986 1.84227e-39)
(10.0397 0.0587145 2.71245e-38)
(10.0391 0.0575308 3.57866e-37)
(10.0375 0.0562444 3.95936e-36)
(10.0351 0.054923 3.0142e-35)
(10.0321 0.0535898 -2.52399e-35)
(10.0286 0.0522389 -6.14414e-33)
(10.0249 0.050842 -1.31404e-31)
(10.0211 0.0493464 -2.35866e-30)
(10.0173 0.0476631 -1.01323e-28)
(10.0137 0.0456269 -7.09232e-27)
(10.0106 0.0428683 -4.36972e-25)
(10.0069 0.0383616 -2.31637e-23)
(10.0015 0.0163882 2.80522e-45)
(10.0125 0.0373897 5.5758e-44)
(10.0272 0.043781 1.02468e-42)
(10.0364 0.0472985 1.9026e-41)
(10.0433 0.0497054 3.47846e-40)
(10.0493 0.0509147 6.08073e-39)
(10.0542 0.051436 9.90055e-38)
(10.058 0.0515944 1.4572e-36)
(10.0611 0.0514916 1.84242e-35)
(10.0636 0.0511682 1.75123e-34)
(10.0656 0.0506511 5.29575e-34)
(10.0673 0.0499513 -2.38068e-32)
(10.0687 0.0490585 -5.69417e-31)
(10.07 0.0479358 -2.26735e-31)
(10.0712 0.0465062 4.97345e-28)
(10.0724 0.0446197 2.61127e-26)
(10.0736 0.0420058 9.90726e-25)
(10.074 0.0381184 3.29763e-23)
(10.0023 0.0180937 5.04712e-45)
(10.0121 0.0360928 1.01959e-43)
(10.0253 0.0426075 1.95933e-42)
(10.0351 0.0461282 3.91385e-41)
(10.0431 0.0486815 7.85745e-40)
(10.0503 0.0501222 1.52729e-38)
(10.0568 0.0507871 2.79408e-37)
(10.0624 0.0509973 4.69567e-36)
(10.0674 0.0508939 7.01783e-35)
(10.0719 0.0505421 8.6906e-34)
(10.0761 0.0499796 6.8354e-33)
(10.0799 0.0492212 -4.70661e-32)
(10.0836 0.0482572 -3.72031e-30)
(10.087 0.0470509 -1.08299e-28)
(10.0903 0.0455319 -2.40115e-27)
(10.0935 0.0435814 -4.48613e-26)
(10.0964 0.0410404 -7.15521e-25)
(10.0987 0.0377135 -9.37111e-24)
(10.002 0.0160959 8.20139e-45)
(10.0105 0.0309993 1.5277e-43)
(10.0222 0.0379777 2.75798e-42)
(10.0319 0.0419979 5.56114e-41)
(10.0403 0.044865 1.21085e-39)
(10.048 0.0466224 2.66434e-38)
(10.055 0.0475569 5.64377e-37)
(10.0614 0.0479746 1.12095e-35)
(10.0673 0.0480335 2.05551e-34)
(10.0727 0.0478093 3.42418e-33)
(10.0778 0.0473439 5.02175e-32)
(10.0826 0.0466547 5.93712e-31)
(10.0872 0.0457359 3.61892e-30)
(10.0916 0.0445584 -8.01998e-29)
(10.0958 0.0430694 -4.23425e-27)
(10.0998 0.0411917 -1.27126e-25)
(10.1034 0.0388509 -3.17581e-24)
(10.1065 0.0360158 -7.1865e-23)
(10.0018 0.014314 1.34802e-44)
(10.0091 0.0275025 2.09801e-43)
(10.0194 0.0347369 2.74137e-42)
(10.0287 0.0390158 3.93583e-41)
(10.037 0.0419774 7.68734e-40)
(10.0447 0.0438486 1.95559e-38)
(10.0519 0.0448979 5.23985e-37)
(10.0585 0.0454053 1.32296e-35)
(10.0647 0.0455297 3.07208e-34)
(10.0705 0.0453513 6.59394e-33)
(10.076 0.0449148 1.32504e-31)
(10.0812 0.0442408 2.53177e-30)
(10.0861 0.0433283 4.68148e-29)
(10.0908 0.0421576 8.53964e-28)
(10.0954 0.0406934 1.56501e-26)
(10.0996 0.0388912 2.91816e-25)
(10.1034 0.0367258 5.55215e-24)
(10.1069 0.0342337 1.07015e-22)
(10.0016 0.0127832 2.48006e-44)
(10.0079 0.0246144 3.63874e-43)
(10.0171 0.0317467 3.56421e-42)
(10.0259 0.036117 1.31395e-41)
(10.0339 0.0391227 -4.23452e-40)
(10.0415 0.0410697 -1.23117e-38)
(10.0486 0.042209 -1.58868e-37)
(10.0553 0.0427927 6.51923e-37)
(10.0616 0.0429751 1.03811e-34)
(10.0675 0.042839 3.69578e-33)
(10.0731 0.0424321 9.60072e-32)
(10.0785 0.0417782 2.10414e-30)
(10.0836 0.040882 4.08796e-29)
(10.0885 0.0397329 7.18336e-28)
(10.0931 0.0383108 1.14652e-26)
(10.0974 0.036595 1.64252e-25)
(10.1014 0.0345879 2.0237e-24)
(10.1049 0.0323548 1.84776e-23)
(10.0014 0.0112914 5.63086e-44)
(10.0068 0.0217657 9.24915e-43)
(10.0148 0.0285881 1.09597e-41)
(10.0229 0.0329426 7.10839e-41)
(10.0305 0.0359424 -1.07804e-39)
(10.0378 0.037926 -5.73499e-38)
(10.0448 0.0391263 -1.53985e-36)
(10.0514 0.0397662 -3.26256e-35)
(10.0577 0.0399924 -5.95814e-34)
(10.0636 0.0398891 -9.65338e-33)
(10.0693 0.0395062 -1.3986e-31)
(10.0747 0.0388716 -1.80376e-30)
(10.0798 0.037996 -2.03516e-29)
(10.0847 0.0368788 -1.93169e-28)
(10.0894 0.0355145 -1.40143e-27)
(10.0937 0.0339018 -5.33762e-27)
(10.0976 0.0320608 3.29048e-26)
(10.1013 0.0300677 6.86781e-25)
(10.0012 0.00980661 1.339e-43)
(10.0057 0.0189198 2.59209e-42)
(10.0127 0.0252691 4.1485e-41)
(10.02 0.0294939 5.78993e-40)
(10.0271 0.0324229 6.36069e-39)
(10.0341 0.0343928 3.02363e-38)
(10.0408 0.0356168 -9.95179e-37)
(10.0472 0.0362877 -4.26536e-35)
(10.0533 0.0365413 -1.10753e-33)
(10.0591 0.036461 -2.35529e-32)
(10.0647 0.0360983 -4.41247e-31)
(10.0701 0.0354847 -7.48247e-30)
(10.0752 0.0346374 -1.16059e-28)
(10.08 0.0335653 -1.64864e-27)
(10.0845 0.0322754 -2.12964e-26)
(10.0888 0.0307806 -2.45251e-25)
(10.0927 0.0291104 -2.39594e-24)
(10.0963 0.0273395 -1.68898e-23)
(10.001 0.00833817 2.71605e-43)
(10.0048 0.0161157 5.97071e-42)
(10.0107 0.0218481 1.15046e-40)
(10.0173 0.0258193 2.10189e-39)
(10.0239 0.0286011 3.63369e-38)
(10.0303 0.0304978 5.89303e-37)
(10.0367 0.0316998 8.83444e-36)
(10.0428 0.0323702 1.19039e-34)
(10.0487 0.0326305 1.35015e-33)
(10.0544 0.0325608 1.01843e-32)
(10.0598 0.0322131 -4.35052e-32)
(10.065 0.031622 -4.03337e-30)
(10.0699 0.0308104 -1.12698e-28)
(10.0746 0.0297954 -2.41057e-27)
(10.079 0.0285932 -4.48325e-26)
(10.0831 0.0272255 -7.57566e-25)
(10.0869 0.025725 -1.18707e-23)
(10.0905 0.0241578 -1.74423e-22)
(10.0009 0.00690098 3.52496e-43)
(10.004 0.0133738 8.37717e-42)
(10.009 0.018362 1.78886e-40)
(10.0148 0.0219484 3.70362e-39)
(10.0208 0.0244954 7.45377e-38)
(10.0268 0.026251 1.45748e-36)
(10.0327 0.0273784 2.76656e-35)
(10.0385 0.0280116 5.0928e-34)
(10.0441 0.0282552 9.08195e-33)
(10.0496 0.0281826 1.5672e-31)
(10.0547 0.027845 2.61406e-30)
(10.0597 0.0272784 4.21025e-29)
(10.0645 0.0265102 6.54174e-28)
(10.0689 0.0255627 9.79745e-27)
(10.0732 0.0244582 1.41338e-25)
(10.0771 0.0232221 1.96279e-24)
(10.0808 0.0218859 2.62276e-23)
(10.0843 0.0205052 3.37093e-22)
(10.0007 0.00550351 5.35065e-44)
(10.0034 0.0106986 8.30157e-43)
(10.0076 0.0148394 7.18584e-42)
(10.0126 0.017913 -6.92232e-41)
(10.018 0.0201281 -5.66052e-39)
(10.0235 0.0216667 -1.90318e-37)
(10.0291 0.0226594 -5.02859e-36)
(10.0345 0.0232124 -1.16538e-34)
(10.0398 0.0234112 -2.46423e-33)
(10.0449 0.0233199 -4.84328e-32)
(10.0499 0.022986 -8.93806e-31)
(10.0546 0.0224452 -1.55824e-29)
(10.0591 0.0217263 -2.57642e-28)
(10.0634 0.0208544 -4.05087e-27)
(10.0674 0.0198537 -6.0682e-26)
(10.0712 0.0187498 -8.67298e-25)
(10.0747 0.0175707 -1.184e-23)
(10.078 0.0163617 -1.54525e-22)
(10.0006 0.00414351 -1.39248e-43)
(10.0028 0.00807813 -3.48506e-42)
(10.0064 0.0112901 -7.66942e-41)
(10.0108 0.0137331 -1.59188e-39)
(10.0157 0.0155142 -3.13055e-38)
(10.0207 0.0167528 -5.84202e-37)
(10.0258 0.0175442 -1.03534e-35)
(10.0309 0.0179672 -1.74299e-34)
(10.0358 0.0180873 -2.78666e-33)
(10.0407 0.0179569 -4.22791e-32)
(10.0453 0.0176165 -6.07891e-31)
(10.0498 0.0170987 -8.26508e-30)
(10.0541 0.016431 -1.05911e-28)
(10.0581 0.0156378 -1.27251e-27)
(10.062 0.0147422 -1.42144e-26)
(10.0656 0.0137672 -1.45451e-25)
(10.0689 0.0127365 -1.32399e-24)
(10.0722 0.0116859 -9.9793e-24)
(10.0005 0.00280602 5.26981e-44)
(10.0024 0.00548078 1.14377e-42)
(10.0055 0.00769455 2.23848e-41)
(10.0094 0.00940051 4.31161e-40)
(10.0138 0.0106458 8.18048e-39)
(10.0183 0.011498 1.5215e-37)
(10.023 0.0120175 2.75855e-36)
(10.0278 0.0122562 4.84966e-35)
(10.0324 0.0122592 8.23041e-34)
(10.037 0.0120643 1.34366e-32)
(10.0414 0.0117025 2.1047e-31)
(10.0456 0.0112002 3.15729e-30)
(10.0496 0.0105803 4.53005e-29)
(10.0535 0.00986382 6.21111e-28)
(10.0571 0.00907019 8.13284e-27)
(10.0606 0.00821827 1.01653e-25)
(10.0638 0.00732666 1.21236e-24)
(10.0669 0.00642341 1.37918e-23)
(10.0005 0.00146136 2.3874e-43)
(10.0021 0.00285103 5.16069e-42)
(10.0049 0.00399721 9.78233e-41)
(10.0084 0.00486887 1.76889e-39)
(10.0124 0.0054809 3.06242e-38)
(10.0166 0.0058614 5.0757e-37)
(10.021 0.00603806 8.05092e-36)
(10.0254 0.00603657 1.2216e-34)
(10.0298 0.00588059 1.77223e-33)
(10.0341 0.00559142 2.45663e-32)
(10.0382 0.00518802 3.25113e-31)
(10.0423 0.00468747 4.10349e-30)
(10.0461 0.00410552 4.93295e-29)
(10.0498 0.00345699 5.63769e-28)
(10.0532 0.00275579 6.10999e-27)
(10.0565 0.00201534 6.25623e-26)
(10.0596 0.00124892 6.01878e-25)
(10.0626 0.000477787 5.39244e-24)
(10.0004 0.000142433 2.4396e-43)
(10.002 0.000260758 5.68335e-42)
(10.0046 0.000325312 1.17219e-40)
(10.0079 0.000328953 2.3109e-39)
(10.0117 0.00026911 4.36936e-38)
(10.0157 0.000142025 7.92683e-37)
(10.0199 -5.50022e-05 1.38022e-35)
(10.0242 -0.000321927 2.30714e-34)
(10.0284 -0.000656395 3.70316e-33)
(10.0325 -0.00105445 5.70865e-32)
(10.0365 -0.00151086 8.45359e-31)
(10.0403 -0.00201939 1.20275e-29)
(10.044 -0.00257304 1.64444e-28)
(10.0475 -0.00316429 2.16092e-27)
(10.0509 -0.00378526 2.72972e-26)
(10.0541 -0.00442809 3.31541e-25)
(10.0571 -0.00508462 3.87236e-24)
(10.06 -0.00573967 4.35023e-23)
(10.0004 -0.00107569 -4.45349e-43)
(10.002 -0.00214019 -1.00113e-41)
(10.0046 -0.00308817 -1.99027e-40)
(10.008 -0.00389404 -3.7928e-39)
(10.0118 -0.0045749 -6.95213e-38)
(10.0158 -0.00516747 -1.22585e-36)
(10.0199 -0.00570488 -2.07926e-35)
(10.0241 -0.00621177 -3.39247e-34)
(10.0283 -0.00670629 -5.32422e-33)
(10.0323 -0.00720132 -8.03761e-32)
(10.0362 -0.00770496 -1.16717e-30)
(10.04 -0.00822143 -1.63038e-29)
(10.0436 -0.00875209 -2.19083e-28)
(10.0471 -0.00929632 -2.8322e-27)
(10.0503 -0.00985208 -3.52259e-26)
(10.0534 -0.0104164 -4.21563e-25)
(10.0564 -0.0109852 -4.85481e-24)
(10.0592 -0.0115482 -5.38069e-23)
(10.0005 -0.00219673 -4.05711e-43)
(10.0021 -0.00436466 -8.86921e-42)
(10.0049 -0.00624643 -1.7095e-40)
(10.0085 -0.0077683 -3.15957e-39)
(10.0124 -0.00897475 -5.62206e-38)
(10.0166 -0.00994789 -9.63458e-37)
(10.0208 -0.0107538 -1.59044e-35)
(10.025 -0.0114412 -2.52939e-34)
(10.0292 -0.0120486 -3.87613e-33)
(10.0333 -0.0126048 -5.72431e-32)
(10.0372 -0.01313 -8.14794e-31)
(10.0409 -0.0136377 -1.11795e-29)
(10.0445 -0.0141363 -1.47875e-28)
(10.0479 -0.0146308 -1.88582e-27)
(10.0511 -0.0151239 -2.31885e-26)
(10.0542 -0.0156164 -2.7494e-25)
(10.0571 -0.0161075 -3.14356e-24)
(10.0599 -0.0165903 -3.46608e-23)
(10.0005 -0.00326392 -9.23808e-44)
(10.0023 -0.00652899 -1.59606e-42)
(10.0054 -0.00931442 -2.11873e-41)
(10.0093 -0.0114734 -2.04434e-40)
(10.0136 -0.0131179 -1.61186e-40)
(10.018 -0.0143974 5.91804e-38)
(10.0224 -0.0154113 2.03589e-36)
(10.0267 -0.0162313 4.97423e-35)
(10.031 -0.0169155 1.03524e-33)
(10.035 -0.0175078 1.94011e-32)
(10.039 -0.0180385 3.3552e-31)
(10.0427 -0.0185283 5.42432e-30)
(10.0463 -0.0189912 8.26152e-29)
(10.0497 -0.0194368 1.19129e-27)
(10.0529 -0.0198715 1.63189e-26)
(10.0559 -0.0202998 2.12879e-25)
(10.0588 -0.0207238 2.64929e-24)
(10.0616 -0.0211407 3.14974e-23)
(10.0005 -0.0042742 -2.2118e-44)
(10.0025 -0.00869411 -3.47356e-43)
(10.0061 -0.0123672 -4.0449e-42)
(10.0105 -0.0150519 -3.18133e-41)
(10.0151 -0.0170139 7.93226e-41)
(10.0198 -0.0184954 1.04409e-38)
(10.0244 -0.019626 2.91774e-37)
(10.0289 -0.0205019 6.1072e-36)
(10.0333 -0.0212025 1.10552e-34)
(10.0374 -0.0217848 1.82291e-33)
(10.0414 -0.0222867 2.81717e-32)
(10.0452 -0.022734 4.16544e-31)
(10.0487 -0.0231443 5.9939e-30)
(10.0521 -0.0235301 8.50836e-29)
(10.0553 -0.0239003 1.20141e-27)
(10.0583 -0.0242614 1.69046e-26)
(10.0611 -0.024618 2.36011e-25)
(10.0639 -0.0249695 3.24382e-24)
(10.0004 -0.00521602 -1.60645e-44)
(10.0026 -0.0109915 -4.14251e-43)
(10.0068 -0.0155902 -9.94846e-42)
(10.0119 -0.0187297 -2.34199e-40)
(10.017 -0.0209636 -5.33181e-39)
(10.022 -0.0226153 -1.16371e-37)
(10.0268 -0.0238291 -2.42537e-36)
(10.0315 -0.0247317 -4.82093e-35)
(10.0359 -0.0254268 -9.14002e-34)
(10.0401 -0.0259824 -1.65407e-32)
(10.0441 -0.0264415 -2.86013e-31)
(10.0478 -0.0268335 -4.73041e-30)
(10.0514 -0.0271788 -7.49081e-29)
(10.0547 -0.027492 -1.13678e-27)
(10.0578 -0.0277841 -1.65459e-26)
(10.0608 -0.0280645 -2.31145e-25)
(10.0635 -0.0283419 -3.1012e-24)
(10.0662 -0.0286225 -3.99812e-23)
(10.0002 -0.00593101 1.89415e-44)
(10.0025 -0.0133252 4.60863e-43)
(10.0076 -0.0185872 1.00943e-41)
(10.0134 -0.0218232 2.15189e-40)
(10.019 -0.0241143 4.48867e-39)
(10.0242 -0.0257853 9.16409e-38)
(10.0292 -0.0269611 1.82822e-36)
(10.034 -0.0278035 3.55445e-35)
(10.0384 -0.028439 6.71436e-34)
(10.0426 -0.0289396 1.2288e-32)
(10.0465 -0.0293478 2.17344e-31)
(10.0502 -0.0296913 3.70844e-30)
(10.0536 -0.0299888 6.0957e-29)
(10.0568 -0.0302529 9.64385e-28)
(10.0598 -0.0304931 1.46769e-26)
(10.0626 -0.0307181 2.14809e-25)
(10.0652 -0.0309375 3.02327e-24)
(10.0676 -0.03116 4.09186e-23)
(9.99977 -0.00649473 3.06029e-44)
(10.0021 -0.0170845 7.1981e-43)
(10.0084 -0.0233021 1.51123e-41)
(10.0149 -0.0266116 3.05849e-40)
(10.0207 -0.0289922 5.98265e-39)
(10.026 -0.030692 1.1302e-37)
(10.0311 -0.0318061 2.0593e-36)
(10.0357 -0.032537 3.61311e-35)
(10.04 -0.0330319 6.09267e-34)
(10.044 -0.0333718 9.8527e-33)
(10.0477 -0.0336071 1.52411e-31)
(10.0511 -0.0337726 2.24818e-30)
(10.0543 -0.033891 3.14926e-29)
(10.0572 -0.033977 4.16504e-28)
(10.0599 -0.0340403 5.15423e-27)
(10.0623 -0.0340894 5.87746e-26)
(10.0646 -0.0341378 5.99356e-25)
(10.0667 -0.0342053 5.08024e-24)
(9.99798 -0.00293555 2.23507e-44)
(9.99991 -0.0168829 4.93651e-43)
(10.008 -0.0232939 9.63464e-42)
(10.0152 -0.0260207 1.80776e-40)
(10.021 -0.0279684 3.27276e-39)
(10.0263 -0.0293743 5.71387e-38)
(10.0312 -0.0303876 9.60734e-37)
(10.0356 -0.0311965 1.55275e-35)
(10.0395 -0.0318768 2.40659e-34)
(10.043 -0.0324489 3.56668e-33)
(10.0461 -0.0329259 5.03713e-32)
(10.0489 -0.0333211 6.74956e-31)
(10.0515 -0.0336451 8.53301e-30)
(10.0537 -0.0339057 1.01017e-28)
(10.0558 -0.0341082 1.10822e-27)
(10.0575 -0.0342567 1.11039e-26)
(10.0591 -0.034361 9.96728e-26)
(10.0604 -0.0344323 7.88899e-25)
(9.99459 -0.00611883 1.11825e-44)
(9.99512 -0.0273443 2.2674e-43)
(10.0058 -0.0377523 4.02408e-42)
(10.0137 -0.0433277 6.89291e-41)
(10.019 -0.0460087 1.1447e-39)
(10.0236 -0.0465264 1.84082e-38)
(10.0274 -0.0459576 2.85981e-37)
(10.0305 -0.0450054 4.27981e-36)
(10.033 -0.043966 6.14964e-35)
(10.035 -0.0429563 8.45256e-34)
(10.0367 -0.0420264 1.1064e-32)
(10.0379 -0.0411932 1.37162e-31)
(10.0389 -0.0404543 1.59888e-30)
(10.0395 -0.0397968 1.7347e-29)
(10.0399 -0.0392018 1.72348e-28)
(10.04 -0.0386458 1.52008e-27)
(10.0399 -0.0381107 1.09666e-26)
(10.0395 -0.0375714 4.24817e-26)
(9.98548 0.00834022 4.11509e-45)
(9.98405 0.0194657 7.46464e-44)
(9.99643 0.0243368 1.17758e-42)
(10.0046 0.0168887 1.81449e-41)
(10.0094 0.00675372 2.74038e-40)
(10.0122 -0.00200611 4.04222e-39)
(10.0133 -0.00907208 5.79764e-38)
(10.0128 -0.0146954 8.04915e-37)
(10.0113 -0.0190958 1.07684e-35)
(10.009 -0.0224907 1.38157e-34)
(10.0061 -0.0250881 1.69079e-33)
(10.0028 -0.0270638 1.96112e-32)
(9.9991 -0.0285554 2.138e-31)
(9.9951 -0.0296668 2.16501e-30)
(9.99088 -0.0304712 1.9981e-29)
(9.98647 -0.0310108 1.62162e-28)
(9.9819 -0.0313004 1.06354e-27)
(9.97686 -0.0312699 4.10207e-27)
(9.99924 -0.295135 1.03445e-45)
(9.99748 -0.289148 1.64636e-44)
(9.98879 -0.227729 2.25799e-43)
(9.97492 -0.179068 3.08393e-42)
(9.96209 -0.143032 4.2049e-41)
(9.9495 -0.115955 5.67884e-40)
(9.93598 -0.0958118 7.53549e-39)
(9.9215 -0.0808756 9.75522e-38)
(9.90637 -0.0697032 1.22425e-36)
(9.8908 -0.0612368 1.48024e-35)
(9.87495 -0.0547338 1.71325e-34)
(9.85897 -0.0496697 1.88441e-33)
(9.84296 -0.0456689 1.95273e-32)
(9.82704 -0.0424582 1.88956e-31)
(9.81129 -0.0398325 1.72359e-30)
(9.79579 -0.0376225 1.76068e-29)
(9.78065 -0.0356635 3.83169e-28)
(9.76533 -0.0335315 1.82914e-26)
(9.97279 0.878007 1.20758e-46)
(9.97287 0.508408 1.70193e-45)
(9.88791 0.320158 2.02826e-44)
(9.78171 0.207505 2.46197e-43)
(9.68012 0.136331 3.05293e-42)
(9.58517 0.0900468 3.81299e-41)
(9.49606 0.0590601 4.73465e-40)
(9.41266 0.037814 5.78535e-39)
(9.33487 0.0229984 6.8979e-38)
(9.26238 0.0125402 7.96429e-37)
(9.1948 0.00509114 8.83854e-36)
(9.13177 -0.000247654 9.35324e-35)
(9.07294 -0.0040863 9.35384e-34)
(9.01801 -0.00684535 8.76576e-33)
(8.96671 -0.0088168 7.79706e-32)
(8.91878 -0.0101987 7.81781e-31)
(8.87418 -0.0111027 1.3211e-29)
(8.83147 -0.0114117 -3.40894e-28)
(0.00579529 -0.0142991 -3.03595e-23)
(0.0162142 -0.0169105 -9.24003e-23)
(0.0244395 -0.0130013 -1.89965e-22)
(0.0287075 -0.00693185 -3.74491e-22)
(0.0276408 -0.000296282 -7.60472e-23)
(0.0218531 0.00607392 2.99532e-22)
(0.0123233 0.0116805 1.66368e-22)
(-0.000814699 0.0163801 5.26071e-23)
(-0.0166465 0.0197673 -4.29377e-23)
(-0.0343143 0.0221278 -1.27405e-22)
(-0.0538123 0.0239855 -2.14208e-22)
(-0.0748553 0.0255513 2.3154e-23)
(-0.0972685 0.0268895 9.17285e-23)
(-0.120902 0.0280228 9.32367e-23)
(-0.145618 0.0289664 8.86991e-23)
(-0.171287 0.0297361 8.96211e-23)
(-0.19779 0.03035 1.00207e-22)
(-0.225017 0.0308265 1.22251e-22)
(-0.25287 0.0311842 1.38235e-22)
(-0.281262 0.0314401 1.5322e-22)
(-0.310116 0.0316101 1.70784e-22)
(-0.339368 0.0317081 9.45709e-23)
(-0.36896 0.0317465 8.88077e-23)
(-0.398843 0.0317363 5.91193e-24)
(-0.428979 0.0316866 -1.94854e-23)
(-0.459333 0.0316053 3.90222e-23)
(-0.489877 0.0314993 1.14718e-22)
(-0.520591 0.031374 1.25256e-22)
(-0.551455 0.0312341 1.25703e-22)
(-0.582457 0.0310833 1.28788e-22)
(-0.613585 0.0309244 1.39585e-22)
(-0.644833 0.0307598 9.85398e-23)
(-0.676193 0.030591 4.7414e-23)
(-0.707663 0.0304192 4.52982e-23)
(-0.739238 0.0302447 4.83158e-23)
(-0.770918 0.0300678 5.29269e-23)
(-0.802701 0.0298882 5.4017e-23)
(-0.834584 0.0297053 3.4132e-24)
(-0.866567 0.0295182 -1.91488e-23)
(-0.898648 0.0293258 -4.80659e-23)
(-0.930824 0.0291271 3.81187e-24)
(-0.963092 0.0289211 1.47694e-24)
(-0.995448 0.0287071 6.45018e-23)
(-1.02789 0.0284851 6.55264e-23)
(-1.0604 0.0282563 6.21821e-23)
(-1.093 0.028025 1.28004e-22)
(-1.12568 0.0278015 1.39023e-22)
(-1.15841 0.0276021 1.4776e-22)
(-1.19124 0.027441 1.56561e-22)
(-1.22421 0.0273205 1.09439e-22)
(-1.25731 0.0272095 1.14642e-22)
(-1.29055 0.0270862 1.242e-22)
(-1.32392 0.026959 7.60745e-23)
(-1.35741 0.0268261 1.54062e-23)
(-1.39102 0.0266857 5.72682e-23)
(-1.42472 0.0265363 5.36201e-23)
(-1.45851 0.0263765 4.53433e-23)
(-1.49238 0.0262053 -1.27399e-23)
(-1.5263 0.0260218 2.61003e-23)
(-1.56025 0.0258253 2.42395e-23)
(-1.59422 0.0256148 -2.5978e-23)
(-1.62818 0.0253898 -3.64124e-23)
(-1.66212 0.0251498 2.53335e-24)
(-1.696 0.024894 2.30707e-24)
(-1.72981 0.0246221 6.15287e-25)
(-1.76351 0.0243336 -1.36551e-24)
(-1.79707 0.024028 -3.20721e-24)
(-1.83048 0.0237048 -5.06526e-23)
(-1.8637 0.0233637 -6.45524e-23)
(-1.89669 0.0230043 -7.39129e-23)
(-1.92943 0.0226262 -8.43085e-23)
(-1.96188 0.0222289 -5.34686e-23)
(-1.99401 0.021812 -6.05421e-23)
(-2.02578 0.0213751 -2.95177e-23)
(-2.05715 0.0209177 -3.05542e-23)
(-2.08809 0.0204394 -2.91932e-23)
(-2.11855 0.0199396 -2.99053e-23)
(-2.14849 0.0194178 -2.96513e-23)
(-2.17787 0.0188735 -5.99444e-23)
(-2.20665 0.0183061 -5.99144e-23)
(-2.23476 0.0177153 -2.79599e-23)
(-2.26218 0.0171004 -2.98234e-23)
(-2.28884 0.016461 -7.41793e-23)
(-2.31469 0.0157967 -9.5508e-23)
(-2.33968 0.0151074 -5.0717e-23)
(-2.36376 0.0143927 2.59268e-24)
(-2.38686 0.0136526 -1.1566e-23)
(-2.40894 0.0128875 -2.34659e-23)
(-2.42993 0.0120975 -4.00695e-23)
(-2.44977 0.0112833 -5.09531e-23)
(-2.4684 0.0104458 1.02375e-23)
(-2.48577 0.00958601 1.08883e-23)
(-2.50182 0.00870541 7.83439e-23)
(-2.5165 0.00780559 8.72207e-23)
(-2.52975 0.0068884 2.11524e-23)
(-2.54152 0.00595585 6.25002e-23)
(-2.55177 0.00501001 6.31683e-23)
(-2.56044 0.00405297 5.60989e-23)
(-2.56752 0.00308656 5.55916e-23)
(-2.57295 0.0021116 5.64501e-23)
(-2.5767 0.0011289 5.6501e-23)
(-2.57872 0.000151591 5.69765e-23)
(-2.57903 -0.000810939 6.03029e-23)
(-2.57762 -0.00176206 1.0451e-22)
(-2.57449 -0.00270289 1.13554e-22)
(-2.56963 -0.00363331 1.27409e-22)
(-2.56304 -0.00455304 8.97373e-23)
(-2.55473 -0.00546175 9.66833e-23)
(-2.54469 -0.00635906 1.08576e-22)
(-2.53292 -0.00724458 7.91337e-23)
(-2.51943 -0.00811789 8.20594e-23)
(-2.50423 -0.00897852 9.47315e-23)
(-2.48732 -0.00982601 1.12867e-22)
(-2.4687 -0.0106598 9.75326e-23)
(-2.4484 -0.0114795 1.09508e-22)
(-2.42641 -0.0122844 9.03344e-23)
(-2.40276 -0.013074 9.56337e-23)
(-2.37745 -0.0138476 1.0191e-22)
(-2.35051 -0.0146045 9.93209e-23)
(-2.32195 -0.015344 1.14597e-22)
(-2.2918 -0.0160656 1.11176e-22)
(-2.26008 -0.0167687 9.28373e-23)
(-2.22682 -0.0174528 9.30505e-23)
(-2.19203 -0.0181177 9.51783e-23)
(-2.15577 -0.018763 9.71686e-23)
(-2.11804 -0.0193883 9.18334e-23)
(-2.0789 -0.0199933 9.09219e-23)
(-2.03836 -0.0205775 9.53574e-23)
(-1.99648 -0.0211404 9.44477e-23)
(-1.95328 -0.0216814 9.06487e-23)
(-1.90881 -0.0222004 9.51623e-23)
(-1.86312 -0.0226972 9.70117e-23)
(-1.81624 -0.023172 1.04104e-22)
(-1.76822 -0.0236252 1.1861e-22)
(-1.71911 -0.0240567 1.45228e-22)
(-1.66896 -0.0244661 1.39377e-22)
(-1.61781 -0.0248528 1.08523e-22)
(-1.56571 -0.0252172 3.03484e-23)
(-1.51272 -0.0255599 -2.43504e-23)
(-1.45889 -0.025882 -4.94636e-24)
(-1.40427 -0.0261839 4.4064e-23)
(-1.34891 -0.0264647 8.85973e-24)
(-1.29286 -0.0267244 -3.51815e-23)
(-1.23619 -0.0269646 -8.52234e-23)
(-1.17893 -0.0271886 2.64254e-23)
(-1.12114 -0.0273954 -3.84965e-25)
(-1.06287 -0.0275823 -1.75779e-22)
(-1.00417 -0.0277523 -9.93954e-23)
(-0.945099 -0.0279116 1.3261e-22)
(-0.885687 -0.0280577 1.8518e-22)
(-0.825997 -0.0281842 2.98514e-22)
(-0.766069 -0.0283074 4.86546e-22)
(-0.705927 -0.0284246 2.71872e-22)
(-0.645635 -0.0285185 2.62719e-22)
(-0.585224 -0.0286233 2.01713e-22)
(-0.524709 -0.0287244 3.39878e-23)
(-0.464132 -0.0288156 2.58345e-22)
(-0.40351 -0.0289275 4.19453e-22)
(-0.34289 -0.0290169 1.07821e-22)
(-0.282215 -0.0291569 -1.09868e-22)
(-0.221683 -0.0292824 -1.65027e-22)
(-0.160897 -0.029419 3.78695e-22)
(-0.100331 -0.0296729 2.97579e-22)
(-0.0401663 -0.029953 3.47571e-22)
(0.0216799 -0.0296448 5.22576e-22)
(0.0814305 -0.0286717 2.39976e-22)
(0.140936 -0.0277367 -3.56376e-23)
(0.199984 -0.0269273 -4.26548e-22)
(0.25864 -0.0261967 6.00369e-23)
(0.316969 -0.0255197 -4.63434e-23)
(0.375 -0.0248786 -7.68041e-23)
(0.432726 -0.0242557 -1.30709e-23)
(0.490105 -0.0236301 6.81649e-22)
(0.547008 -0.0229617 2.49584e-22)
(0.60325 -0.0222003 -4.58934e-22)
(0.658168 -0.0211672 -1.08228e-22)
(0.711339 -0.0197367 1.81757e-22)
(0.75855 -0.0167349 1.98742e-22)
(0.802412 -0.0120827 2.9295e-22)
(0.79459 0.00565451 -6.7699e-22)
(0.00264398 -0.0312631 -3.80671e-24)
(0.00470438 -0.0263754 -8.28119e-23)
(0.00125717 -0.0122901 -2.01556e-22)
(-0.00618108 0.00310432 1.40918e-22)
(-0.0163215 0.0170507 1.36221e-22)
(-0.0287984 0.0288458 8.17246e-23)
(-0.0433081 0.0384975 1.03525e-22)
(-0.0596153 0.0462274 5.36127e-23)
(-0.0775258 0.0523377 1.21466e-23)
(-0.0968857 0.0572617 -1.91887e-23)
(-0.11756 0.0613651 -3.61302e-23)
(-0.139386 0.0648495 8.97531e-23)
(-0.16222 0.0678261 2.14033e-22)
(-0.185937 0.0703579 1.4757e-22)
(-0.210429 0.0724878 1.00585e-22)
(-0.235602 0.0742524 4.41711e-23)
(-0.261372 0.0756872 -1.41774e-23)
(-0.287661 0.0768274 6.17303e-23)
(-0.314401 0.0777076 7.37151e-23)
(-0.341531 0.0783611 6.4222e-23)
(-0.368998 0.078819 4.40195e-23)
(-0.396754 0.0791101 7.41514e-23)
(-0.42476 0.0792607 8.17303e-23)
(-0.452981 0.0792942 1.42758e-22)
(-0.481389 0.0792313 9.98185e-23)
(-0.50996 0.0790902 6.13455e-23)
(-0.538676 0.0788867 1.1109e-22)
(-0.567523 0.0786342 1.50368e-22)
(-0.596488 0.0783442 1.13853e-22)
(-0.625564 0.0780263 4.46518e-23)
(-0.654747 0.0776882 2.8815e-23)
(-0.684031 0.0773363 5.45122e-23)
(-0.713417 0.0769756 2.88371e-23)
(-0.742905 0.07661 1.78044e-23)
(-0.772496 0.0762421 1.02185e-23)
(-0.802193 0.0758738 5.48128e-23)
(-0.831998 0.0755063 1.30338e-22)
(-0.861915 0.0751399 1.97553e-22)
(-0.891949 0.0747746 2.55701e-22)
(-0.922104 0.0744099 2.14502e-22)
(-0.952384 0.074045 6.71858e-23)
(-0.982793 0.0736791 1.29195e-22)
(-1.01334 0.0733113 1.06615e-22)
(-1.04402 0.0729412 1.02818e-22)
(-1.07485 0.072569 1.06789e-22)
(-1.10582 0.0721965 7.21116e-23)
(-1.13696 0.0718308 6.897e-23)
(-1.16824 0.0714864 7.81197e-23)
(-1.19968 0.0711688 8.18618e-24)
(-1.23124 0.070867 3.47778e-23)
(-1.26292 0.0705679 3.5312e-23)
(-1.29471 0.0702613 2.85165e-23)
(-1.3266 0.0699409 6.94397e-23)
(-1.35859 0.069602 1.33551e-22)
(-1.39067 0.0692404 1.23931e-22)
(-1.42282 0.0688528 1.39242e-22)
(-1.45502 0.0684363 7.75246e-23)
(-1.48726 0.0679885 9.2717e-23)
(-1.51953 0.067507 7.04178e-23)
(-1.5518 0.0669901 1.20086e-23)
(-1.58406 0.066436 3.78108e-23)
(-1.61628 0.065843 5.73377e-23)
(-1.64844 0.0652099 2.52137e-23)
(-1.68052 0.0645353 1.70306e-23)
(-1.7125 0.0638181 1.71345e-23)
(-1.74435 0.0630572 1.7791e-23)
(-1.77604 0.0622517 5.51983e-24)
(-1.80754 0.0614006 4.30215e-23)
(-1.83883 0.060503 6.06125e-24)
(-1.86987 0.0595581 1.7154e-24)
(-1.90064 0.058565 1.53839e-23)
(-1.93111 0.0575228 1.27143e-23)
(-1.96123 0.0564307 2.91626e-23)
(-1.99098 0.0552875 -9.27791e-24)
(-2.02031 0.0540924 -4.40236e-23)
(-2.0492 0.0528444 -2.61273e-23)
(-2.0776 0.0515422 -3.28506e-23)
(-2.10547 0.0501848 -1.09074e-22)
(-2.13277 0.0487709 -8.20792e-23)
(-2.15946 0.0472995 -1.04474e-23)
(-2.18549 0.0457692 9.43661e-25)
(-2.21081 0.044179 1.4431e-23)
(-2.23537 0.0425279 5.47415e-23)
(-2.25913 0.040815 1.00329e-22)
(-2.28203 0.0390397 1.10473e-22)
(-2.30401 0.0372017 1.2416e-22)
(-2.32503 0.0353012 6.77956e-23)
(-2.34501 0.0333386 8.54641e-23)
(-2.36392 0.0313151 1.9824e-23)
(-2.38168 0.0292323 -6.07193e-24)
(-2.39824 0.0270929 2.12361e-23)
(-2.41354 0.0248998 8.29214e-24)
(-2.42753 0.022657 5.6316e-23)
(-2.44015 0.0203693 9.63026e-23)
(-2.45135 0.018042 1.40563e-22)
(-2.46107 0.015681 7.8594e-23)
(-2.46927 0.0132924 1.10045e-22)
(-2.47591 0.0108826 6.18224e-23)
(-2.48095 0.00845697 5.46361e-23)
(-2.48435 0.00601821 6.04986e-23)
(-2.48606 0.00356951 5.80039e-23)
(-2.48608 0.00113535 3.72181e-23)
(-2.48441 -0.00126081 1.22999e-22)
(-2.48104 -0.00361944 7.86065e-23)
(-2.47596 -0.00594141 5.81458e-23)
(-2.46918 -0.0082264 7.28206e-23)
(-2.4607 -0.0104736 5.08666e-23)
(-2.45051 -0.0126821 5.32048e-23)
(-2.43861 -0.0148507 3.78627e-23)
(-2.42501 -0.0169783 6.20788e-23)
(-2.4097 -0.0190638 3.13805e-23)
(-2.39271 -0.021106 2.85813e-23)
(-2.37402 -0.0231035 1.7756e-23)
(-2.35365 -0.025055 5.30453e-23)
(-2.33161 -0.0269592 4.94755e-23)
(-2.30791 -0.0288146 6.93983e-23)
(-2.28256 -0.0306198 7.78908e-23)
(-2.25557 -0.0323732 1.15718e-22)
(-2.22697 -0.034073 1.54065e-22)
(-2.19678 -0.0357175 1.44972e-22)
(-2.165 -0.0373051 1.00637e-22)
(-2.13168 -0.0388346 9.30076e-23)
(-2.09682 -0.0403049 9.27295e-23)
(-2.06047 -0.041715 1.00553e-22)
(-2.02265 -0.0430642 8.43348e-23)
(-1.98339 -0.0443521 6.68611e-23)
(-1.94272 -0.0455778 8.36693e-23)
(-1.90068 -0.0467405 1.08549e-22)
(-1.8573 -0.047839 1.11537e-22)
(-1.81263 -0.048872 1.00419e-22)
(-1.7667 -0.049839 8.87763e-23)
(-1.71956 -0.0507401 8.69396e-23)
(-1.67125 -0.0515757 7.87717e-23)
(-1.62181 -0.0523467 6.58983e-23)
(-1.5713 -0.0530539 5.76646e-23)
(-1.51975 -0.0536965 8.53752e-23)
(-1.46722 -0.0542735 1.21854e-22)
(-1.41375 -0.0547853 1.29107e-22)
(-1.3594 -0.0552336 1.11412e-22)
(-1.30423 -0.0556213 9.93901e-23)
(-1.24827 -0.05595 1.00635e-22)
(-1.19158 -0.0562183 7.0106e-23)
(-1.13422 -0.0564259 3.42425e-23)
(-1.07623 -0.0565759 2.99604e-24)
(-1.01768 -0.0566761 6.34768e-23)
(-0.958599 -0.0567261 -5.96377e-23)
(-0.899046 -0.0567201 4.47709e-24)
(-0.839076 -0.056663 -4.87615e-23)
(-0.778736 -0.056568 1.0241e-22)
(-0.718062 -0.0564322 9.71834e-23)
(-0.657111 -0.056243 1.625e-22)
(-0.595929 -0.056029 3.49836e-22)
(-0.534537 -0.0557894 2.87353e-22)
(-0.472993 -0.0554933 3.2065e-22)
(-0.411324 -0.0551949 3.14733e-22)
(-0.349564 -0.054878 2.98836e-22)
(-0.287726 -0.0545278 2.09011e-22)
(-0.225851 -0.05419 1.71092e-22)
(-0.163968 -0.0538131 1.75867e-22)
(-0.101981 -0.0534695 -1.09107e-22)
(-0.0402356 -0.0531522 1.36992e-22)
(0.0220633 -0.0527401 4.43645e-22)
(0.0836995 -0.0523017 3.06773e-22)