/*--------------------------------*- C++ -*----------------------------------*\
| =========                 |                                                 |
| \\      /  F ield         | OpenFOAM: The Open Source CFD Toolbox           |
|  \\    /   O peration     | Version:  dev                                   |
|   \\  /    A nd           | Website:  https://openfoam.org                  |
|    \\/     M anipulation  |                                                 |
\*---------------------------------------------------------------------------*/
FoamFile
{
    version     2.0;
    format      ascii;
    class       volVectorField;
    location    "288";
    object      U;
}
// * * * * * * * * * * * * * * * * * * * * * * * * * * * * * * * * * * * * * //

dimensions      [0 1 -1 0 0 0 0];

internalField   nonuniform List<vector>
12225
(
(9.85698 -0.886449 0)
(9.66665 -0.740747 0)
(9.45574 -0.429483 0)
(9.22457 -0.222216 0)
(9.00656 -0.106462 0)
(8.81447 -0.0458767 0)
(8.64764 -0.0151809 0)
(8.50548 0.000439179 0)
(8.38389 0.00837067 0)
(8.28119 0.0122615 0)
(8.1929 0.0139566 0)
(8.11682 0.0149822 0)
(8.05028 0.0153167 0)
(7.99145 0.0155406 0)
(7.9388 0.0153661 0)
(7.89276 0.0160313 0)
(7.84038 0.0191813 0)
(7.83143 0.00952496 0)
(10.0545 0.227568 0)
(10.1211 0.32691 0)
(10.1196 0.261569 0)
(10.0856 0.186536 0)
(10.0435 0.134661 0)
(9.99677 0.101105 0)
(9.94407 0.0792701 0)
(9.88537 0.0645475 0)
(9.82404 0.0542354 0)
(9.76158 0.0466397 0)
(9.70016 0.0408644 0)
(9.64044 0.0362906 0)
(9.58322 0.0326149 0)
(9.529 0.0296994 0)
(9.47726 0.027167 0)
(9.42997 0.0258002 0)
(9.38248 0.0223178 0)
(9.3472 0.0311402 0)
(10.0035 0.057918 0)
(10.0303 0.0560056 0)
(10.0561 0.033776 0)
(10.0704 0.0328896 0)
(10.077 0.0406357 0)
(10.0779 0.0465286 0)
(10.0726 0.0493384 0)
(10.0615 0.0502773 0)
(10.0463 0.0501667 0)
(10.0279 0.0494426 0)
(10.0074 0.0483838 0)
(9.98532 0.0472003 0)
(9.96228 0.0459814 0)
(9.93877 0.0448619 0)
(9.915 0.0437036 0)
(9.89178 0.0431583 0)
(9.86878 0.0420584 0)
(9.84705 0.0432854 0)
(9.99779 0.011053 0)
(10.011 0.0266061 0)
(10.035 0.0371458 0)
(10.0525 0.0480772 0)
(10.0644 0.0554393 0)
(10.0735 0.0581663 0)
(10.0796 0.0583292 0)
(10.0825 0.0575791 0)
(10.0829 0.0565197 0)
(10.0814 0.0553105 0)
(10.0784 0.0540196 0)
(10.0741 0.0527652 0)
(10.0688 0.0515349 0)
(10.0628 0.0504284 0)
(10.0561 0.0493247 0)
(10.0493 0.0486163 0)
(10.0425 0.0476586 0)
(10.0355 0.0473808 0)
(9.99935 0.00719717 0)
(10.009 0.0316514 0)
(10.0275 0.0439156 0)
(10.0418 0.0499117 0)
(10.0528 0.053595 0)
(10.0629 0.055213 0)
(10.0717 0.0554846 0)
(10.0785 0.055185 0)
(10.0836 0.054629 0)
(10.0875 0.0539087 0)
(10.0903 0.0530774 0)
(10.0923 0.0522284 0)
(10.0935 0.0513717 0)
(10.0942 0.0505759 0)
(10.0945 0.0497828 0)
(10.0945 0.0491791 0)
(10.0945 0.0484487 0)
(10.0944 0.0478439 0)
(10.0003 0.00917698 0)
(10.0083 0.0311654 0)
(10.0227 0.0409347 0)
(10.035 0.0453784 0)
(10.0451 0.0490165 0)
(10.0548 0.0513435 0)
(10.0638 0.0523145 0)
(10.0715 0.0525355 0)
(10.078 0.052386 0)
(10.0836 0.0520029 0)
(10.0885 0.0514607 0)
(10.0927 0.0508449 0)
(10.0964 0.0501866 0)
(10.0997 0.049533 0)
(10.1026 0.0488619 0)
(10.1054 0.0482477 0)
(10.1081 0.0475373 0)
(10.1107 0.0467221 0)
(10.0005 0.0089429 0)
(10.0071 0.0270792 0)
(10.0191 0.0364014 0)
(10.0302 0.0413722 0)
(10.0396 0.0453874 0)
(10.0487 0.0480428 0)
(10.0573 0.0492996 0)
(10.065 0.0497541 0)
(10.0718 0.0498082 0)
(10.078 0.0496066 0)
(10.0835 0.0492259 0)
(10.0886 0.0487407 0)
(10.0933 0.0481907 0)
(10.0976 0.0476084 0)
(10.1017 0.0469865 0)
(10.1056 0.0463452 0)
(10.1093 0.0455992 0)
(10.1131 0.0446758 0)
(10.0004 0.00791355 0)
(10.006 0.0233712 0)
(10.0161 0.0327209 0)
(10.0263 0.038079 0)
(10.0352 0.0420642 0)
(10.0436 0.0447354 0)
(10.0518 0.0461317 0)
(10.0593 0.0467471 0)
(10.0661 0.0469463 0)
(10.0723 0.0468729 0)
(10.0781 0.0466043 0)
(10.0834 0.0462079 0)
(10.0885 0.0457264 0)
(10.0932 0.045184 0)
(10.0977 0.0445796 0)
(10.1021 0.0439092 0)
(10.1064 0.0431186 0)
(10.1105 0.0421398 0)
(10.0004 0.00695733 0)
(10.0051 0.0204172 0)
(10.0137 0.0294365 0)
(10.0229 0.0348349 0)
(10.0312 0.0386745 0)
(10.0392 0.0413224 0)
(10.0469 0.0428373 0)
(10.0541 0.0435901 0)
(10.0607 0.0439034 0)
(10.0669 0.0439265 0)
(10.0727 0.0437387 0)
(10.0781 0.0434036 0)
(10.0833 0.0429638 0)
(10.0882 0.0424404 0)
(10.0929 0.0418345 0)
(10.0974 0.0411351 0)
(10.1018 0.0403047 0)
(10.1061 0.0392984 0)
(10.0004 0.00612592 0)
(10.0043 0.01785 0)
(10.0116 0.026256 0)
(10.0199 0.0315513 0)
(10.0277 0.0352633 0)
(10.0352 0.0378738 0)
(10.0425 0.0394664 0)
(10.0494 0.04032 0)
(10.0558 0.0407179 0)
(10.0618 0.040812 0)
(10.0675 0.0406828 0)
(10.0729 0.0403906 0)
(10.0781 0.0399761 0)
(10.083 0.0394601 0)
(10.0877 0.0388454 0)
(10.0923 0.0381224 0)
(10.0966 0.0372648 0)
(10.1009 0.0362516 0)
(10.0003 0.0053654 0)
(10.0037 0.0155387 0)
(10.0099 0.0232152 0)
(10.0173 0.0283118 0)
(10.0245 0.0318803 0)
(10.0315 0.0344127 0)
(10.0384 0.0360287 0)
(10.045 0.0369445 0)
(10.0513 0.0374012 0)
(10.0571 0.037546 0)
(10.0627 0.0374594 0)
(10.068 0.0371973 0)
(10.0731 0.0367993 0)
(10.0779 0.0362862 0)
(10.0826 0.0356637 0)
(10.0871 0.034926 0)
(10.0914 0.0340568 0)
(10.0956 0.0330533 0)
(10.0003 0.00469967 0)
(10.0032 0.013596 0)
(10.0086 0.0205663 0)
(10.0152 0.0253967 0)
(10.0219 0.0287981 0)
(10.0286 0.0312237 0)
(10.0351 0.0328193 0)
(10.0414 0.0337602 0)
(10.0474 0.0342492 0)
(10.0531 0.0344242 0)
(10.0586 0.0343638 0)
(10.0638 0.034121 0)
(10.0688 0.0337334 0)
(10.0735 0.0332227 0)
(10.0781 0.0325969 0)
(10.0825 0.0318554 0)
(10.0867 0.0309888 0)
(10.0907 0.030008 0)
(10.0003 0.00408432 0)
(10.0028 0.011825 0)
(10.0075 0.0180646 0)
(10.0134 0.0225525 0)
(10.0197 0.0257525 0)
(10.0259 0.0280459 0)
(10.0321 0.0295887 0)
(10.0381 0.0305277 0)
(10.0439 0.031031 0)
(10.0495 0.0312231 0)
(10.0548 0.0311795 0)
(10.0598 0.0309505 0)
(10.0647 0.0305717 0)
(10.0694 0.0300654 0)
(10.0738 0.0294422 0)
(10.0781 0.0287059 0)
(10.0822 0.027853 0)
(10.0861 0.0269045 0)
(10.0002 0.0034487 0)
(10.0024 0.00998437 0)
(10.0064 0.0153813 0)
(10.0117 0.0194018 0)
(10.0174 0.0223168 0)
(10.0232 0.0244184 0)
(10.029 0.0258577 0)
(10.0348 0.0267575 0)
(10.0403 0.0272506 0)
(10.0457 0.0274438 0)
(10.0508 0.027407 0)
(10.0557 0.0271866 0)
(10.0604 0.0268161 0)
(10.065 0.0263176 0)
(10.0693 0.0257044 0)
(10.0734 0.0249843 0)
(10.0774 0.0241591 0)
(10.0811 0.0232566 0)
(10.0002 0.00278876 0)
(10.002 0.00807269 0)
(10.0055 0.0125267 0)
(10.0101 0.0159501 0)
(10.0153 0.0184782 0)
(10.0206 0.0203128 0)
(10.0261 0.021585 0)
(10.0314 0.0223944 0)
(10.0367 0.0228412 0)
(10.0418 0.0230116 0)
(10.0468 0.0229659 0)
(10.0515 0.0227462 0)
(10.0561 0.0223823 0)
(10.0604 0.0218959 0)
(10.0646 0.0213018 0)
(10.0686 0.0206111 0)
(10.0724 0.0198293 0)
(10.076 0.0189877 0)
(10.0002 0.00210388 0)
(10.0017 0.00609225 0)
(10.0047 0.00950967 0)
(10.0088 0.0122027 0)
(10.0134 0.014225 0)
(10.0183 0.0157004 0)
(10.0233 0.0167271 0)
(10.0283 0.0173806 0)
(10.0333 0.0177323 0)
(10.0382 0.0178458 0)
(10.0429 0.0177692 0)
(10.0475 0.0175375 0)
(10.0518 0.0171762 0)
(10.056 0.0167052 0)
(10.06 0.0161392 0)
(10.0639 0.0154908 0)
(10.0675 0.0147673 0)
(10.071 0.0140005 0)
(10.0002 0.0013912 0)
(10.0015 0.00402927 0)
(10.0041 0.00631446 0)
(10.0076 0.0081431 0)
(10.0118 0.00952954 0)
(10.0163 0.0105379 0)
(10.0209 0.0112285 0)
(10.0256 0.0116501 0)
(10.0303 0.0118477 0)
(10.0349 0.011862 0)
(10.0394 0.0117264 0)
(10.0438 0.011466 0)
(10.048 0.0111007 0)
(10.052 0.0106461 0)
(10.0558 0.0101151 0)
(10.0595 0.00951932 0)
(10.063 0.00886608 0)
(10.0663 0.00818442 0)
(10.0001 0.000634433 0)
(10.0013 0.00183232 0)
(10.0036 0.00286937 0)
(10.0068 0.00369202 0)
(10.0107 0.00430194 0)
(10.0148 0.00472149 0)
(10.0192 0.00497345 0)
(10.0236 0.0050777 0)
(10.0281 0.00505372 0)
(10.0325 0.00491988 0)
(10.0368 0.004692 0)
(10.0409 0.00438301 0)
(10.0449 0.00400389 0)
(10.0488 0.0035642 0)
(10.0525 0.00307256 0)
(10.056 0.00253733 0)
(10.0593 0.00196384 0)
(10.0625 0.00137632 0)
(10.0001 -0.000209419 0)
(10.0012 -0.000620278 0)
(10.0034 -0.000998304 0)
(10.0065 -0.0013423 0)
(10.0102 -0.00165027 0)
(10.0143 -0.00193621 0)
(10.0185 -0.00221791 0)
(10.0228 -0.00250741 0)
(10.0271 -0.00281181 0)
(10.0313 -0.00313654 0)
(10.0355 -0.00348555 0)
(10.0395 -0.00386095 0)
(10.0434 -0.00426291 0)
(10.0471 -0.00469048 0)
(10.0507 -0.00514161 0)
(10.054 -0.00561328 0)
(10.0573 -0.00610386 0)
(10.0603 -0.00659608 0)
(10.0001 -0.00101636 0)
(10.0013 -0.00297257 0)
(10.0037 -0.00471469 0)
(10.007 -0.00617043 0)
(10.0108 -0.00733521 0)
(10.015 -0.00826872 0)
(10.0193 -0.00903234 0)
(10.0237 -0.00966781 0)
(10.028 -0.0102093 0)
(10.0323 -0.010688 0)
(10.0364 -0.0111285 0)
(10.0404 -0.0115471 0)
(10.0442 -0.0119546 0)
(10.0479 -0.0123581 0)
(10.0514 -0.0127624 0)
(10.0547 -0.0131693 0)
(10.0579 -0.013581 0)
(10.0609 -0.0139864 0)
(10.0002 -0.00171217 0)
(10.0015 -0.00502682 0)
(10.0041 -0.0079623 0)
(10.0078 -0.0103243 0)
(10.012 -0.0121326 0)
(10.0164 -0.0135371 0)
(10.021 -0.0146438 0)
(10.0255 -0.0155097 0)
(10.03 -0.0161912 0)
(10.0343 -0.0167468 0)
(10.0385 -0.0172206 0)
(10.0425 -0.0176409 0)
(10.0464 -0.0180269 0)
(10.0501 -0.0183917 0)
(10.0535 -0.0187448 0)
(10.0569 -0.0190911 0)
(10.06 -0.0194349 0)
(10.063 -0.0197689 0)
(10.0002 -0.00237299 0)
(10.0016 -0.00705697 0)
(10.0047 -0.0112078 0)
(10.009 -0.0143866 0)
(10.0137 -0.0166922 0)
(10.0185 -0.0184351 0)
(10.0233 -0.019775 0)
(10.0281 -0.0207826 0)
(10.0328 -0.0215392 0)
(10.0373 -0.0221257 0)
(10.0416 -0.0225984 0)
(10.0456 -0.0229938 0)
(10.0495 -0.0233379 0)
(10.0532 -0.0236504 0)
(10.0567 -0.0239438 0)
(10.06 -0.024226 0)
(10.0631 -0.0245022 0)
(10.0661 -0.0247679 0)
(10.0002 -0.00299155 0)
(10.0018 -0.00911314 0)
(10.0054 -0.0144758 0)
(10.0105 -0.018373 0)
(10.0159 -0.021125 0)
(10.0211 -0.023155 0)
(10.0263 -0.0246182 0)
(10.0314 -0.0256394 0)
(10.0362 -0.0263729 0)
(10.0409 -0.0269284 0)
(10.0452 -0.0273622 0)
(10.0494 -0.0277097 0)
(10.0533 -0.0280002 0)
(10.057 -0.0282558 0)
(10.0605 -0.0284908 0)
(10.0638 -0.0287132 0)
(10.067 -0.0289287 0)
(10.0699 -0.0291344 0)
(10.0001 -0.00353681 0)
(10.0018 -0.0115647 0)
(10.0062 -0.0179074 0)
(10.0123 -0.022012 0)
(10.0183 -0.0250858 0)
(10.024 -0.0275018 0)
(10.0296 -0.0291463 0)
(10.035 -0.0301624 0)
(10.0401 -0.0308204 0)
(10.0448 -0.031285 0)
(10.0493 -0.0316237 0)
(10.0535 -0.0318769 0)
(10.0575 -0.0320784 0)
(10.0613 -0.032252 0)
(10.0648 -0.0324111 0)
(10.0681 -0.0325629 0)
(10.0712 -0.032711 0)
(10.0741 -0.0328516 0)
(9.99991 -0.00338475 0)
(10.0016 -0.0149793 0)
(10.0073 -0.0227423 0)
(10.0142 -0.0262597 0)
(10.0206 -0.0288522 0)
(10.0268 -0.0312229 0)
(10.0331 -0.0329493 0)
(10.039 -0.0340422 0)
(10.0444 -0.0347464 0)
(10.0494 -0.0352141 0)
(10.054 -0.0355157 0)
(10.0583 -0.0357052 0)
(10.0622 -0.0358286 0)
(10.0659 -0.035917 0)
(10.0693 -0.0359882 0)
(10.0725 -0.0360521 0)
(10.0754 -0.0361135 0)
(10.0781 -0.0361706 0)
(9.9986 -0.000401129 0)
(9.99908 -0.0157651 0)
(10.0075 -0.0274421 0)
(10.0166 -0.0325075 0)
(10.0237 -0.034888 0)
(10.0306 -0.0362479 0)
(10.0376 -0.0370036 0)
(10.0441 -0.037474 0)
(10.0498 -0.037826 0)
(10.0549 -0.0380763 0)
(10.0595 -0.0382238 0)
(10.0635 -0.0382937 0)
(10.0671 -0.038316 0)
(10.0702 -0.038312 0)
(10.073 -0.0382969 0)
(10.0754 -0.0382788 0)
(10.0775 -0.0382615 0)
(10.0794 -0.038243 0)
(9.99488 0.0013334 0)
(9.99287 -0.00809893 0)
(10.006 -0.0203605 0)
(10.0202 -0.0322884 0)
(10.0306 -0.0404932 0)
(10.0392 -0.0441674 0)
(10.0467 -0.0450824 0)
(10.0529 -0.0449404 0)
(10.0577 -0.0444759 0)
(10.0616 -0.0438824 0)
(10.0645 -0.0432396 0)
(10.0667 -0.0426042 0)
(10.0681 -0.0420107 0)
(10.069 -0.0414673 0)
(10.0693 -0.0409836 0)
(10.0691 -0.0405559 0)
(10.0687 -0.0401816 0)
(10.0679 -0.0398346 0)
(9.99473 -0.0305628 0)
(9.99925 -0.0228763 0)
(10.0147 -0.00264181 0)
(10.0304 -0.00191791 0)
(10.0434 -0.0116693 0)
(10.0533 -0.0209348 0)
(10.0594 -0.0272936 0)
(10.0618 -0.0315231 0)
(10.0615 -0.0342995 0)
(10.059 -0.0359972 0)
(10.055 -0.0369301 0)
(10.0497 -0.0373646 0)
(10.0434 -0.0374907 0)
(10.0363 -0.0374285 0)
(10.0288 -0.0372684 0)
(10.0208 -0.0370653 0)
(10.0127 -0.0368843 0)
(10.0045 -0.0366937 0)
(10.0273 -0.182759 0)
(10.0763 -0.288316 0)
(10.0871 -0.247759 0)
(10.0777 -0.186524 0)
(10.0663 -0.140303 0)
(10.0537 -0.108229 0)
(10.0365 -0.0858906 0)
(10.0145 -0.0704315 0)
(9.98933 -0.0596635 0)
(9.96228 -0.0518902 0)
(9.9343 -0.0460685 0)
(9.90597 -0.0415713 0)
(9.87778 -0.0380155 0)
(9.85006 -0.0351405 0)
(9.82306 -0.0327739 0)
(9.79688 -0.0308527 0)
(9.77177 -0.0293354 0)
(9.74776 -0.028515 0)
(9.93574 0.689319 0)
(9.8686 0.609604 0)
(9.76452 0.380621 0)
(9.62662 0.217439 0)
(9.48586 0.119264 0)
(9.35716 0.0631824 0)
(9.24262 0.0315704 0)
(9.14105 0.0136102 0)
(9.05135 0.0032568 0)
(8.97236 -0.00280468 0)
(8.90244 -0.00636032 0)
(8.84024 -0.00847973 0)
(8.78453 -0.00973055 0)
(8.7344 -0.0104766 0)
(8.68896 -0.0109796 0)
(8.64761 -0.0112486 0)
(8.6094 -0.011455 0)
(8.57405 -0.0121149 0)
(0.00454948 -0.0106147 -8.3217e-19)
(0.0162534 -0.0173085 7.38596e-19)
(0.0265321 -0.0152188 0)
(0.0332957 -0.00931399 0)
(0.0355595 -0.00236489 0)
(0.0330362 0.00397794 -3.91197e-19)
(0.0268019 0.00889195 0)
(0.0177031 0.0122812 0)
(0.00646509 0.0144402 0)
(-0.00640408 0.0157603 0)
(-0.0205503 0.0166177 2.39563e-19)
(-0.0357608 0.0172752 0)
(-0.0519354 0.017885 0)
(-0.0690188 0.0185018 0)
(-0.0869746 0.0191457 0)
(-0.10578 0.0198081 1.28454e-19)
(-0.125414 0.0204846 0)
(-0.145844 0.021159 0)
(-0.167042 0.0218244 0)
(-0.18896 0.0224641 0)
(-0.211571 0.0230691 0)
(-0.234796 0.023632 0)
(-0.258594 0.0241486 0)
(-0.282862 0.0246434 7.42373e-20)
(-0.307536 0.0251563 -7.09636e-20)
(-0.332523 0.0258029 6.81241e-20)
(-0.357806 0.0267663 6.57083e-20)
(-0.383363 0.0283633 0)
(-0.409187 0.0310474 0)
(-0.435374 0.0357944 -6.09192e-20)
(-0.462225 0.0430115 -6.0487e-20)
(-0.490208 0.0530703 0)
(-0.519479 0.0669205 0)
(-0.552345 0.0448664 -8.24314e-20)
(-0.586907 0.00851425 0)
(-0.615962 0.0115467 0)
(-0.651272 0.0162801 8.08042e-20)
(-0.6898 0.0225489 0)
(-0.73061 0.0287284 7.3817e-20)
(-0.773465 0.0322014 1.40901e-19)
(-0.817041 0.0387118 0)
(-0.858605 0.0397341 0)
(-0.899633 0.0269328 0)
(-0.937699 0.0256554 0)
(-0.97488 0.0340075 0)
(-1.01578 0.0347933 1.14818e-19)
(-1.05637 0.0348761 1.11554e-19)
(-1.09706 0.0347499 1.08448e-19)
(-1.1378 0.0345991 0)
(-1.17855 0.0343757 -1.0275e-19)
(-1.21926 0.0341074 0)
(-1.25988 0.0337982 9.77065e-20)
(-1.30037 0.0334655 9.54023e-20)
(-1.34071 0.0331141 0)
(-1.38088 0.0327509 0)
(-1.42085 0.0323772 0)
(-1.46062 0.0319952 8.7382e-20)
(-1.50016 0.0316045 0)
(-1.53946 0.031205 0)
(-1.57851 0.0307954 0)
(-1.61728 0.030375 0)
(-1.65575 0.0299422 0)
(-1.69389 0.029496 0)
(-1.7317 0.0290346 0)
(-1.76912 0.0285572 0)
(-1.80615 0.0280622 -7.41372e-20)
(-1.84275 0.027549 0)
(-1.87888 0.0270164 0)
(-1.91451 0.0264639 7.06673e-20)
(-1.94961 0.0258907 6.95821e-20)
(-1.98414 0.0252964 0)
(-2.01807 0.0246806 -6.75011e-20)
(-2.05135 0.0240432 6.65e-20)
(-2.08395 0.023384 0)
(-2.11582 0.0227031 -6.45638e-20)
(-2.14694 0.0220006 0)
(-2.17724 0.0212771 0)
(-2.20671 0.0205328 6.17907e-20)
(-2.23529 0.0197682 0)
(-2.26294 0.0189836 -6.00048e-20)
(-2.28962 0.0181798 0)
(-2.3153 0.0173571 5.82513e-20)
(-2.33993 0.0165161 5.73821e-20)
(-2.36347 0.0156569 5.65156e-20)
(-2.38589 0.01478 1.113e-19)
(-2.40714 0.0138851 -1.09569e-19)
(-2.42718 0.012972 0)
(-2.44597 0.0120389 0)
(-2.46348 0.0110838 0)
(-2.47965 0.0101022 -1.02572e-19)
(-2.49446 0.00908817 -1.00791e-19)
(-2.50784 0.00803446 9.89934e-20)
(-2.51975 0.00693202 0)
(-2.53011 0.00577061 -9.53389e-20)
(-2.53886 0.00454453 -9.34793e-20)
(-2.54591 0.00326795 -9.15982e-20)
(-2.5512 0.00199413 0)
(-2.55459 0.000815436 0)
(-2.556 -0.00018996 0)
(-2.55599 -0.00108108 -8.3728e-20)
(-2.55445 -0.0019472 0)
(-2.55144 -0.00280074 0)
(-2.54695 -0.00364909 7.73136e-20)
(-2.54097 -0.00449297 0)
(-2.53349 -0.00533209 0)
(-2.5245 -0.00616614 7.04045e-20)
(-2.51401 -0.00699397 0)
(-2.50199 -0.00781552 0)
(-2.48846 -0.00862957 -6.29342e-20)
(-2.4734 -0.00943623 -6.03075e-20)
(-2.45682 -0.0102342 0)
(-2.43873 -0.0110236 5.48338e-20)
(-2.41911 -0.0118032 0)
(-2.39799 -0.0125732 -4.90475e-20)
(-2.37536 -0.0133321 0)
(-2.35123 -0.0140805 -4.29254e-20)
(-2.32562 -0.0148167 -3.97304e-20)
(-2.29854 -0.0155412 0)
(-2.27 -0.0162528 0)
(-2.24001 -0.0169521 0)
(-2.2086 -0.0176383 0)
(-2.17578 -0.0183116 0)
(-2.14158 -0.0189701 0)
(-2.10602 -0.0196142 0)
(-2.06911 -0.0202422 -1.04766e-20)
(-2.03088 -0.0208556 6.29322e-21)
(-1.99137 -0.0214535 0)
(-1.95058 -0.0220383 0)
(-1.90857 -0.022607 0)
(-1.86535 -0.0231605 0)
(-1.82095 -0.0236978 -3.35162e-20)
(-1.77541 -0.0242192 0)
(-1.72877 -0.0247239 5.42157e-20)
(-1.68106 -0.025216 -6.51147e-20)
(-1.63232 -0.0256912 0)
(-1.58259 -0.0261506 0)
(-1.53191 -0.0265943 0)
(-1.48031 -0.0270226 1.12857e-19)
(-1.42785 -0.0274357 1.25953e-19)
(-1.37456 -0.0278346 0)
(-1.32049 -0.0282197 1.53736e-19)
(-1.26569 -0.0285916 1.6849e-19)
(-1.2102 -0.028951 -1.83871e-19)
(-1.15407 -0.029298 0)
(-1.09733 -0.0296335 0)
(-1.04003 -0.0299577 -2.34214e-19)
(-0.982216 -0.0302715 0)
(-0.92393 -0.0305753 0)
(-0.865215 -0.0308703 0)
(-0.806112 -0.0311569 0)
(-0.746664 -0.0314364 3.35564e-19)
(-0.68691 -0.0317092 3.59115e-19)
(-0.626891 -0.031977 0)
(-0.566645 -0.0322402 4.10284e-19)
(-0.506211 -0.0325004 0)
(-0.445624 -0.0327581 0)
(-0.38492 -0.0330144 4.99232e-19)
(-0.324135 -0.0332689 0)
(-0.263304 -0.0335246 5.6869e-19)
(-0.202462 -0.0337886 0)
(-0.141642 -0.0340764 0)
(-0.0808847 -0.0343605 6.93057e-19)
(-0.0202481 -0.0344547 0)
(0.0402079 -0.033954 7.40359e-19)
(0.100541 -0.0330258 0)
(0.160696 -0.0320944 0)
(0.220629 -0.0312171 0)
(0.280336 -0.0303896 -6.71445e-19)
(0.339822 -0.0296041 0)
(0.399086 -0.0288514 6.44108e-19)
(0.45811 -0.0281211 0)
(0.516858 -0.0273998 0)
(0.575259 -0.0266677 0)
(0.633171 -0.0258929 0)
(0.690391 -0.0250165 0)
(0.746293 -0.0239266 0)
(0.800569 -0.0223487 0)
(0.848324 -0.0196348 -1.13637e-18)
(0.895389 -0.0142082 0)
(0.888644 0.00306523 0)
(0.00474202 -0.0327295 1.94239e-18)
(0.0109294 -0.0336134 -1.11406e-18)
(0.0112056 -0.0213253 0)
(0.00857365 -0.0079532 3.50239e-19)
(0.00349174 0.00476302 0)
(-0.0037117 0.0159569 1.37224e-19)
(-0.0130356 0.0251726 -2.51501e-19)
(-0.0243895 0.0323865 -2.32641e-19)
(-0.0376473 0.0378812 0)
(-0.0526089 0.0420722 -1.99511e-19)
(-0.0690451 0.0453779 -9.24037e-20)
(-0.0867775 0.0481259 0)
(-0.105676 0.0505384 0)
(-0.125648 0.0527395 0)
(-0.146627 0.0547974 0)
(-0.168572 0.0567376 -6.52202e-20)
(-0.191458 0.0585755 0)
(-0.215265 0.0603101 1.16355e-19)
(-0.239984 0.0619435 0)
(-0.265608 0.0634688 0)
(-0.292146 0.0648845 -1.00975e-19)
(-0.319605 0.0661858 0)
(-0.34802 0.0673667 9.35362e-20)
(-0.377428 0.0684321 -4.54112e-20)
(-0.407913 0.0693803 4.41804e-20)
(-0.439579 0.0702333 -4.32116e-20)
(-0.472577 0.0709987 -4.25362e-20)
(-0.507071 0.0717109 0)
(-0.54327 0.0723753 0)
(-0.581325 0.0730337 4.27609e-20)
(-0.621209 0.0737398 -4.31346e-20)
(-0.662355 0.0747247 0)
(-0.703047 0.0765847 0)
(-0.746578 0.0792443 4.9477e-20)
(-0.790224 0.0824531 0)
(-0.833984 0.086397 0)
(-0.875267 0.0891905 -4.32444e-20)
(-0.914832 0.0909932 0)
(-0.953446 0.0919222 3.95295e-20)
(-0.991566 0.0918424 -7.478e-20)
(-1.02886 0.0912257 0)
(-1.06683 0.0906666 0)
(-1.10642 0.0900626 -1.3352e-19)
(-1.14682 0.0897574 -1.30019e-19)
(-1.18679 0.0897275 -1.26742e-19)
(-1.22517 0.0894099 6.18002e-20)
(-1.263 0.0888338 -6.07063e-20)
(-1.30038 0.0880816 -1.78065e-19)
(-1.33736 0.0872058 1.16224e-19)
(-1.37398 0.0862435 5.71167e-20)
(-1.41027 0.0852189 0)
(-1.44624 0.0841497 -5.50065e-20)
(-1.48192 0.0830496 5.3741e-20)
(-1.51729 0.0819265 0)
(-1.55236 0.0807856 0)
(-1.58712 0.0796284 0)
(-1.62156 0.0784556 -5.04884e-20)
(-1.65567 0.0772656 0)
(-1.68944 0.076057 9.75608e-20)
(-1.72285 0.0748268 0)
(-1.75587 0.0735728 9.46367e-20)
(-1.7885 0.0722921 0)
(-1.82071 0.0709821 -9.18921e-20)
(-1.85248 0.0696401 0)
(-1.88378 0.0682639 8.92985e-20)
(-1.9146 0.0668513 -4.38988e-20)
(-1.94489 0.0654008 0)
(-1.97464 0.0639106 -8.56372e-20)
(-2.00382 0.0623799 -4.23521e-20)
(-2.03239 0.0608076 -4.17743e-20)
(-2.06033 0.0591935 0)
(-2.0876 0.057537 -4.04252e-20)
(-2.11417 0.0558383 -4.009e-20)
(-2.14002 0.0540976 0)
(-2.16511 0.0523155 3.89972e-20)
(-2.18941 0.0504926 -7.67239e-20)
(-2.21288 0.0486304 0)
(-2.23549 0.0467297 -3.7383e-20)
(-2.25722 0.0447922 0)
(-2.27802 0.042819 1.08782e-19)
(-2.29787 0.040812 0)
(-2.31674 0.0387726 -1.05579e-19)
(-2.33458 0.0367027 -3.46981e-20)
(-2.35138 0.0346036 3.40387e-20)
(-2.3671 0.0324772 6.70031e-20)
(-2.38172 0.0303249 -6.59198e-20)
(-2.39519 0.0281485 0)
(-2.4075 0.0259489 0)
(-2.41862 0.0237269 0)
(-2.42851 0.021482 1.84597e-19)
(-2.43716 0.0192129 6.0391e-20)
(-2.44456 0.0169186 -5.92008e-20)
(-2.45068 0.0145983 0)
(-2.45553 0.0122486 -5.6772e-20)
(-2.45912 0.00986273 5.55195e-20)
(-2.46149 0.00743857 5.4255e-20)
(-2.46269 0.00500052 0)
(-2.46283 0.00262112 0)
(-2.46203 0.000388677 0)
(-2.45985 -0.00172671 4.89156e-20)
(-2.45628 -0.00379961 0)
(-2.45127 -0.00584289 -9.23655e-20)
(-2.4448 -0.00786483 -1.34113e-19)
(-2.43687 -0.00986606 8.65503e-20)
(-2.42747 -0.0118453 0)
(-2.41658 -0.013801 4.04149e-20)
(-2.40419 -0.0157306 0)
(-2.39031 -0.0176328 7.42696e-20)
(-2.37493 -0.0195053 -3.57245e-20)
(-2.35804 -0.0213468 -3.41032e-20)
(-2.33966 -0.0231552 0)
(-2.31978 -0.0249295 -9.13714e-20)
(-2.29839 -0.0266673 5.76233e-20)
(-2.27552 -0.028368 2.67944e-20)
(-2.25116 -0.0300292 0)
(-2.22533 -0.0316503 2.31672e-20)
(-2.19803 -0.0332291 6.45255e-20)
(-2.16928 -0.0347645 0)
(-2.13908 -0.0362549 3.56428e-20)
(-2.10746 -0.0377003 3.1761e-20)
(-2.07443 -0.0390997 2.78163e-20)
(-2.04001 -0.0404526 0)
(-2.00423 -0.0417563 0)
(-1.96709 -0.0430099 0)
(-1.92863 -0.0442105 -6.09903e-21)
(-1.88886 -0.0453592 -3.16054e-21)
(-1.84782 -0.0464547 0)
(-1.80554 -0.0474991 1.57935e-21)
(-1.76203 -0.0484911 6.03428e-21)
(-1.71733 -0.0494329 0)
(-1.67148 -0.0503234 1.60562e-20)
(-1.62449 -0.0511596 3.95668e-20)
(-1.57642 -0.051935 -2.54538e-20)
(-1.52729 -0.0526571 -2.82989e-20)
(-1.47715 -0.053329 0)
(-1.42602 -0.0539485 0)
(-1.37396 -0.0545117 0)
(-1.32099 -0.0550215 -5.00579e-20)
(-1.26717 -0.0554781 5.30649e-20)
(-1.21253 -0.0558831 1.18559e-19)
(-1.15713 -0.0562373 -6.55845e-20)
(-1.10099 -0.0565422 6.87053e-20)
(-1.04418 -0.0567991 7.62531e-20)
(-0.986735 -0.057009 0)
(-0.928692 -0.0571731 0)
(-0.870098 -0.0572925 -9.04703e-20)
(-0.810996 -0.0573687 0)
(-0.75143 -0.0574032 0)
(-0.691443 -0.0573977 2.17272e-19)
(-0.631077 -0.057354 0)
(-0.570373 -0.0572741 1.19149e-19)
(-0.509372 -0.05716 -1.27427e-19)
(-0.448115 -0.0570136 0)
(-0.386641 -0.0568374 1.37143e-19)
(-0.324986 -0.0566326 0)
(-0.263188 -0.0564018 0)
(-0.201283 -0.0561463 -1.58096e-19)
(-0.139305 -0.0558667 3.26463e-19)
(-0.0772874 -0.0555633 -1.70806e-19)
(-0.0152628 -0.0552372 0)
(0.0467504 -0.0548862 0)
(0.108731 -0.0545077 1.79487e-19)
(0.17067 -0.0540587 0)
(0.232501 -0.0534104 1.83106e-19)
(0.294134 -0.0525912 0)
(0.355569 -0.0517463 0)
(0.416832 -0.0509208 0)
(0.477917 -0.05012 1.92276e-19)
(0.53882 -0.0493383 0)
(0.599528 -0.0485658 -1.95233e-19)
(0.660021 -0.0477882 0)
(0.720255 -0.0469846 0)
(0.780158 -0.0461202 3.96236e-19)
(0.839594 -0.0451365 -3.98496e-19)
(0.898351 -0.0439196 0)
(0.955918 -0.0422576 0)
(1.01188 -0.0396151 0)
(1.06331 -0.0350045 1.22743e-18)
(1.11331 -0.0250519 0)
(1.14002 -0.00102919 -8.52569e-19)
(0.000355258 -0.0415877 -8.01855e-22)
(-0.00161685 -0.0290636 1.08395e-18)
(-0.0076326 -0.0103718 0)
(-0.015581 0.00691766 -4.43484e-19)
(-0.0250362 0.0225299 0)
(-0.0356893 0.0363885 0)
(-0.0475243 0.0483982 5.28156e-23)
(-0.0606322 0.0585448 1.37467e-19)
(-0.0750937 0.0669703 1.29389e-19)
(-0.0909326 0.0739446 1.22403e-19)
(-0.108113 0.0797909 0)
(-0.126565 0.0848113 0)
(-0.14621 0.0892536 -1.04476e-19)
(-0.166975 0.0932939 -1.98811e-19)
(-0.188805 0.0970516 1.89516e-19)
(-0.211657 0.100598 0)
(-0.235508 0.10398 1.73315e-19)
(-0.260343 0.107222 -8.32394e-20)
(-0.28616 0.110345 0)
(-0.312959 0.113362 1.54168e-19)
(-0.340754 0.116288 7.45933e-20)
(-0.36956 0.119142 -1.4422e-19)
(-0.399404 0.121946 -7.0152e-20)
(-0.430313 0.124733 0)
(-0.462326 0.127543 1.32991e-19)
(-0.495476 0.130427 1.30273e-19)
(-0.529785 0.133437 0)
(-0.565221 0.136623 1.2659e-19)
(-0.601667 0.140009 0)
(-0.638889 0.1436 1.25219e-19)
(-0.676492 0.147296 6.27447e-20)
(-0.714004 0.150834 0)
(-0.751113 0.153665 0)
(-0.788441 0.154607 0)
(-0.826113 0.154432 0)
(-0.863642 0.155133 0)
(-0.900275 0.15596 0)
(-0.935935 0.156415 1.0652e-19)
(-0.970724 0.156134 -1.54092e-19)
(-1.00488 0.155015 0)
(-1.03855 0.153327 0)
(-1.07207 0.150892 0)
(-1.10597 0.147772 -4.24595e-23)
(-1.14026 0.145275 8.89299e-20)
(-1.17428 0.143427 1.73955e-19)
(-1.20766 0.141561 -1.70317e-19)
(-1.24067 0.139704 -8.33891e-20)
(-1.27341 0.137859 8.18743e-20)
(-1.3059 0.136016 -1.29391e-22)
(-1.33816 0.134165 7.87259e-20)
(-1.3702 0.132302 0)
(-1.40203 0.130426 7.59606e-20)
(-1.43366 0.128537 -1.5037e-22)
(-1.46508 0.126635 0)
(-1.49629 0.124719 0)
(-1.52729 0.122786 -7.10579e-20)
(-1.55805 0.120832 0)
(-1.58857 0.118854 0)
(-1.61883 0.116847 6.76536e-20)
(-1.64882 0.114807 1.33592e-19)
(-1.67851 0.112729 -6.59658e-20)
(-1.70788 0.11061 0)
(-1.73692 0.108445 6.40658e-20)
(-1.76561 0.106231 0)
(-1.7939 0.103963 6.19493e-20)
(-1.82179 0.10164 6.13744e-20)
(-1.84924 0.0992597 -1.2073e-19)
(-1.87622 0.0968191 -5.9376e-20)
(-1.90271 0.0943174 0)
(-1.92868 0.0917536 1.15738e-19)
(-1.9541 0.0891272 0)
(-1.97893 0.0864381 1.68907e-19)
(-2.00314 0.0836866 1.10931e-19)
(-2.02671 0.0808734 1.09358e-19)
(-2.04959 0.0779997 -1.07793e-19)
(-2.07177 0.0750667 1.59467e-19)
(-2.0932 0.0720763 0)
(-2.11385 0.0690305 0)
(-2.13369 0.0659317 -1.01587e-19)
(-2.15268 0.062782 -1.50146e-19)
(-2.1708 0.0595842 0)
(-2.18802 0.056341 4.85397e-20)
(-2.20429 0.0530553 0)
(-2.21959 0.0497297 -1.40731e-19)
(-2.2339 0.0463675 -1.17586e-22)
(-2.24717 0.0429715 1.03798e-22)
(-2.25938 0.0395448 8.89692e-20)
(-2.27051 0.0360904 0)
(-2.28053 0.0326113 -8.56847e-20)
(-2.28941 0.0291103 -4.56349e-23)
(-2.29714 0.0255904 0)
(-2.3037 0.0220564 0)
(-2.30908 0.0185154 0)
(-2.31328 0.0149772 7.71053e-20)
(-2.31628 0.0114552 0)
(-2.3181 0.00796856 0)
(-2.31873 0.00454005 0)
(-2.31814 0.00117922 0)
(-2.31627 -0.00214422 0)
(-2.31305 -0.00545162 6.5904e-20)
(-2.30847 -0.00873362 0)
(-2.3025 -0.0119866 6.17616e-20)
(-2.29511 -0.0152085 5.97057e-20)
(-2.28631 -0.0183963 -5.76209e-20)
(-2.27608 -0.0215468 0)
(-2.2644 -0.0246562 -5.33634e-20)
(-2.25127 -0.0277213 0)
(-2.23669 -0.0307387 -4.89875e-20)
(-2.22066 -0.0337056 4.67549e-20)
(-2.20316 -0.0366189 1.34046e-19)
(-2.18421 -0.039476 0)
(-2.1638 -0.0422741 1.20271e-19)
(-2.14193 -0.0450108 3.81942e-20)
(-2.11862 -0.0476833 0)
(-2.09386 -0.0502895 6.62077e-20)
(-2.06766 -0.0528269 6.1364e-20)
(-2.04004 -0.0552932 -8.42998e-20)
(-2.011 -0.0576859 0)
(-1.98056 -0.0600033 -2.28226e-20)
(-1.94873 -0.0622441 -2.02758e-20)
(-1.91553 -0.0644073 -5.40185e-20)
(-1.88098 -0.0664909 0)
(-1.8451 -0.0684922 0)
(-1.8079 -0.0704086 0)
(-1.76941 -0.0722378 -8.18052e-21)
(-1.72965 -0.0739789 0)
(-1.68864 -0.0756316 0)
(-1.64642 -0.0771968 -9.82133e-22)
(-1.60301 -0.0786748 -3.73914e-21)
(-1.55844 -0.0800666 0)
(-1.51274 -0.0813711 0)
(-1.46595 -0.0825847 -2.42476e-20)
(-1.41809 -0.0837027 0)
(-1.3692 -0.0847297 3.56042e-20)
(-1.31932 -0.0856692 4.00928e-20)
(-1.26848 -0.0865195 0)
(-1.21673 -0.0872778 0)
(-1.16409 -0.0879455 -5.73786e-20)
(-1.11063 -0.0885241 -1.29766e-21)
(-1.05636 -0.0890154 -1.3114e-21)
(-1.00135 -0.0894211 0)
(-0.945633 -0.0897432 -1.62841e-19)
(-0.88925 -0.0899834 0)
(-0.832246 -0.0901436 0)
(-0.774662 -0.0902255 0)
(-0.716542 -0.090231 1.0576e-19)
(-0.657928 -0.0901624 0)
(-0.598862 -0.0900222 -2.32522e-19)
(-0.539388 -0.0898127 -1.23603e-19)
(-0.479546 -0.0895371 0)
(-0.419378 -0.0891978 -1.35511e-19)
(-0.358924 -0.0887983 0)
(-0.298223 -0.0883411 0)
(-0.237313 -0.0878299 -4.57225e-19)
(-0.176232 -0.0872671 3.15734e-19)
(-0.115016 -0.0866552 0)
(-0.053698 -0.0859971 3.39392e-19)
(0.00769027 -0.0852975 -1.76204e-19)
(0.0691187 -0.0845584 0)
(0.130553 -0.0837803 0)
(0.191962 -0.0829596 0)
(0.253319 -0.0820993 -5.65849e-19)
(0.314614 -0.0811984 0)
(0.375836 -0.0802592 -1.95487e-19)
(0.436949 -0.0792865 0)
(0.49794 -0.0782972 0)
(0.5588 -0.0773142 0)
(0.619511 -0.0763415 0)
(0.680061 -0.0753735 0)
(0.740431 -0.0743986 0)
(0.800598 -0.0733978 -4.26912e-19)
(0.860518 -0.0723408 0)
(0.92012 -0.0711764 -2.1914e-19)
(0.979278 -0.0698167 6.61804e-19)
(1.0378 -0.0680996 0)
(1.09527 -0.0657211 0)
(1.15138 -0.0620323 -4.53493e-19)
(1.2042 -0.0557839 -4.60377e-19)
(1.25673 -0.0439642 4.6579e-19)
(1.29669 -0.01906 4.79938e-19)
(-0.00460969 -0.0339957 -2.98678e-18)
(-0.012332 -0.0123308 -1.30481e-18)
(-0.0222831 0.00974419 -4.72983e-19)
(-0.0338128 0.0291398 -1.68597e-19)
(-0.046344 0.046496 0)
(-0.0595458 0.0620562 2.44084e-19)
(-0.0734584 0.0758828 -1.1157e-19)
(-0.0882148 0.0880139 0)
(-0.103937 0.0985532 -9.84672e-20)
(-0.12071 0.107683 0)
(-0.138579 0.115639 1.78486e-19)
(-0.157547 0.122664 0)
(-0.177595 0.128983 8.16944e-20)
(-0.198689 0.134773 1.56665e-19)
(-0.220795 0.140171 -1.50452e-19)
(-0.243883 0.145271 0)
(-0.267932 0.15014 -1.39437e-19)
(-0.292921 0.154821 0)
(-0.31884 0.159347 0)
(-0.345675 0.16374 -1.25954e-19)
(-0.373415 0.168019 0)
(-0.402043 0.172202 1.69874e-22)
(-0.431538 0.176306 0)
(-0.461862 0.18035 0)
(-0.492967 0.184347 -2.19751e-22)
(-0.524774 0.188306 -1.06759e-19)
(-0.557179 0.192217 -1.04128e-19)
(-0.590031 0.196049 -1.02149e-19)
(-0.62313 0.199724 0)
(-0.656244 0.203119 -1.96496e-19)
(-0.689139 0.206042 0)
(-0.721659 0.208245 -9.48455e-20)
(-0.753801 0.209455 0)
(-0.785771 0.209506 0)
(-0.817719 0.208766 8.84882e-20)
(-0.849541 0.207926 0)
(-0.881002 0.207021 -8.35483e-20)
(-0.912008 0.205922 -2.1463e-23)
(-0.94259 0.204493 1.58293e-19)
(-0.97285 0.202681 -1.54234e-19)
(-1.00287 0.200529 0)
(-1.03273 0.197994 0)
(-1.06261 0.195139 -7.17127e-20)
(-1.09252 0.192354 0)
(-1.1223 0.189746 -6.86728e-20)
(-1.15188 0.187174 6.72761e-20)
(-1.18132 0.18463 6.59574e-20)
(-1.21064 0.182116 0)
(-1.23983 0.179626 -6.35168e-20)
(-1.2689 0.177153 -6.23794e-20)